<?xml version="1.0" encoding="UTF-8"?>
<VTKFile type="UnstructuredGrid" version="0.1" byte_order="LittleEndian">
<UnstructuredGrid>
<Piece NumberOfPoints="1578" NumberOfCells="4427">
<PointData>
<DataArray type="Float64" Name="u" Format="ascii">
0.7756755902516872
0.7769945988569397
0.7725483141579185
0.781475528924931
0.777117276881266
0.7800043442959163
0.7797481808674903
0.7853987358098607
0.7810098459996918
0.7837194833502715
0.7833905855658083
0.7847784618427299
0.7890737866915427
0.7664027903336711
0.762519502808683
0.7672541166283658
0.767665965959674
0.7723194121700542
0.7758322668034009
0.7711951172031671
0.7712639978196234
0.7662741848730955
0.7620604258952569
0.7616356878707992
0.7607620917973226
0.7568323962731796
0.7610728794981282
0.7554773387243551
0.7958938478464054
0.7979069667113527
0.7936370085017029
0.7979069667113529
0.793880728981458
0.7952916708355995
0.7952916708355997
0.7938807289814579
0.7933724939211562
0.7930030779834535
0.7921583156070332
0.7910862395215112
0.7951986712671494
0.7871756034887181
0.7866664851175471
0.7880773006984726
0.7922790605859287
0.7928275758601332
0.7901475446755805
0.7896384386161543
0.7658649155833794
0.7704642438607456
0.7745879472694428
0.7782426404652807
0.7816320329692273
0.7760548940410039
0.7796910338001085
0.7829068383217994
0.760974928751793
0.7677011859623122
0.7721439339297992
0.7590170308185583
0.762881922612623
0.7590475650654137
0.7586319496611419
0.7527451828761721
0.7565318903537498
0.7623236892820183
0.7894928702057403
0.7912611814168572
0.7894928702057403
0.7895120468903442
0.7909700641698054
0.7882223599796114
0.7845276452120648
0.7871217686893439
0.785729755456897
0.7883502297795173
0.7836644059275315
0.7728902286790397
0.7658071913726857
0.769339915913149
0.7762541439055033
0.7788122825013827
0.771452336719831
0.7804596922596957
0.7749681176246407
0.7708614908116519
0.7778445819381482
0.7634595445959261
0.7579898207848029
0.7675925653730395
0.7558831995122494
0.7590679238067574
0.7493598940410785
0.7533833448899606
0.7603793662972113
0.7833123901447802
0.7854489661321422
0.7833123901447802
0.78559638857568
0.7855899643773481
0.7817948172348375
0.7793889411864845
0.7809205968296701
0.7829530383964656
0.7788287702179186
0.7677250995795868
0.7645907368480251
0.7624315977740022
0.7780429456279473
0.7732631607022816
0.7753878409814244
0.7764732246880846
0.7662375662803728
0.7694763645492467
0.7646167858537057
0.7746010640746882
0.7721868825634864
0.767287311936481
0.7582769497182884
0.7543243378409337
0.7594249260178109
0.7515188637230447
0.7507179884808929
0.7449098109473637
0.7554241897208973
0.7550614082287178
0.7762921005842012
0.759359750219539
0.7762921005842008
0.7793889411864845
0.7744274731990324
0.7738951545630756
0.7744274731990327
0.7700857922870402
0.774107639350225
0.7712411942690877
0.7609004895977267
0.7629330092601877
0.773366845938419
0.7685124904291419
0.7720830158830859
0.7659178909069444
0.7594321126754674
0.7683595813113353
0.7608314292979063
0.7629283035891998
0.7704974526047877
0.7495516734568951
0.755165303158944
0.7466109581467244
0.7465603776027229
0.7508865889057842
0.7394451638993599
0.7542734140699849
0.7497492929150161
0.7679100838201675
0.7546478641977296
0.7573838777789453
0.7679100838201675
0.7669267965022667
0.7652040968621049
0.7685792258074863
0.7646422480322722
0.7663635005524861
0.7626971977978662
0.7596881628761147
0.7662602257548597
0.7609345963020095
0.7650687957610334
0.7535842922473819
0.762000349734067
0.7555721196228417
0.7636970686413248
0.7437177095412254
0.7491935786104035
0.7406604656217998
0.7438213471653048
0.7416735267819927
0.7434118773013195
0.7475947629352976
0.7334073903231677
0.7505809629206762
0.7582538811277624
0.7480836352577215
0.7531359981769767
0.7582538811277624
0.7584967874558687
0.7585068534495713
0.7550725601906618
0.7595913763859657
0.758142770085015
0.7535643870780853
0.7466748899149397
0.7549942346116268
0.7482695161635771
0.7530891734041391
0.7584275103227728
0.7575886542846705
0.7488375843405956
0.7563906268413646
0.737284393238464
0.7362884178794499
0.7337299950277262
0.7425809109156908
0.7400546301945946
0.7360836919471453
0.7429319282243844
0.7263058616039813
0.7396351179340178
0.7453991289667014
0.7494458147245328
0.7478849199898399
0.7472059400736119
0.7407612400316342
0.7478849199898399
0.7494458147245328
0.7441655997986792
0.7437625623902552
0.7496393860906151
0.7492378453450924
0.7484179190406556
0.7412705353440884
0.7428375847765766
0.7496171305533365
0.7493031127769892
0.7320980006783249
0.7264121535490801
0.7297393152450821
0.7356042286148237
0.7342146330001241
0.7382003970623862
0.7278286655389304
0.7403768933941138
0.7312449142236431
0.7185843829590884
0.7259055789385247
0.7325374099672864
0.7418777135738361
0.7425610245033393
0.7399030777807755
0.7362199466598932
0.7427784719061485
0.7334557492446855
0.7362199466598937
0.7425610245033394
0.7324757994311709
0.7365362829627263
0.7317446079489173
0.7430606255112814
0.7406804776771445
0.7341298326246858
0.7433500934147247
0.7326384192224474
0.7433484815398453
0.7297156477700714
0.7215511098602843
0.7187199015733493
0.7104043053086104
0.7191372640587146
0.7231448151076394
0.7317550598431761
0.7203426127366025
0.7240313054830232
0.7333188061922992
0.7242608383587877
0.7338667734597669
0.7205629610006306
0.7128871602743204
0.7143881597704099
0.7142391412040887
0.7128871602743204
0.7104043053086105
0.7155749930693408
0.7155749930693408
0.7247836816793064
0.7346081077536332
0.7325174639200889
0.7238213258826517
0.7249316753839734
0.7346613738010511
0.7354154809899124
0.7238213258826517
0.7296083058548256
0.7204742555303804
0.7204278532632006
0.7241800681313036
0.7339450751887385
0.7223891186831554
0.7344074822871159
0.7108799999999998
0.7217826385794704
0.7234850036884946
0.7143932308864616
0.7163321211886025
0.7249449154351668
0.7154582956565915
0.717666318280986
0.7183193617049148
0.7158202463804928
0.725926076800988
0.7259712236415846
0.7184869310129034
0.7155750038100076
0.7143932308864619
0.7180901061640832
0.7180901061640832
0.725739705622818
0.7149999568199136
0.7180616255494836
0.7217954566777289
0.7108800000000002
0.7139584919622951
0.7135063652527305
0.71088
0.7108800000000001
0.725276130669738
0.7138633045466091
0.7171969923851196
0.7240536170292444
0.7124675031750062
0.724438888843274
0.7145905238028744
0.7160138430899383
0.7161327305054611
0.716132730505461
0.7196199768238244
0.7196199768238244
0.7154582956565911
0.7207047267946151
0.720704726794615
0.7158202463804928
0.7210795807701291
0.7210795807701293
0.7208378943357887
0.7155750038100076
0.7208378943357888
0.7202623647640845
0.7149999568199136
0.7138633045466091
0.7191224866778765
0.7202623647640846
0.7161327305054607
0.7161327305054609
0.7124675031750064
0.7177234594933706
0.7191224866778764
0.7177234594933707
0.7193897241182451
0.7219277381310683
0.7219277381310683
0.7222140455804046
0.7215182131190448
0.7236082714127826
0.7273509734310205
0.7277954949131414
0.7277954949131413
0.7270128108792002
0.7249644408240107
0.7190735659367038
0.7204140293207634
0.7195538693178662
0.7219533978282359
0.7204464825345386
0.7226084230195174
0.7226084230195174
0.725794019985946
0.7267215064615328
0.726313369154117
0.7265257050208922
0.726246358137598
0.7262463581375983
0.7263934553615814
0.7267215064615328
0.7330077958254446
0.7331604607382894
0.7331604607382884
0.7332135406578278
0.7294610370619922
0.7333023601291419
0.7317644645862924
0.7303746655041384
0.738052492202448
0.7381752468330851
0.738976215584343
0.7381752468330848
0.737950206187896
0.7424283219347033
0.7422652692564043
0.7422652692564043
0.7252048036931873
0.7256962779208721
0.724103368407424
0.7253376106357424
0.7227047833495798
0.721781494834958
0.7240759305742221
0.725800858792106
0.7286659163971757
0.7286659163971756
0.7310346063134981
0.7316361592700124
0.7308399344853918
0.7309228346471578
0.7316988806785824
0.7314627882739971
0.7316988806785824
0.7318475673439622
0.7369924092617322
0.7372147443910836
0.7359198845949455
0.7357186719821545
0.7357379364105328
0.741822222825234
0.7423777882411021
0.744479232089012
0.7421583849288921
0.7461464657349114
0.7464771726664646
0.7457589239157149
0.7457589239157149
0.746357839608273
0.751165130092295
0.7509618035002353
0.7486082329238484
0.7493127818633817
0.7507774028935154
0.7507774028935154
0.7486082329238486
0.749264908683752
0.7493009973695594
0.7511452116889247
0.7531856124245747
0.7295650529315497
0.7282081926517049
0.7295834972349146
0.731447535812641
0.7299379419277573
0.7280371191483773
0.7314444638904617
0.7321546363164994
0.7342834566177787
0.7342834566177793
0.7360168925123795
0.7366847806339974
0.7349792194394146
0.7352567904892745
0.7362108171751717
0.736216584860608
0.7364511927389963
0.7369159794441237
0.7397277662042175
0.7410189031896841
0.7404989239560879
0.7399640673098453
0.74498475566038
0.7464155733412609
0.7461703799029138
0.7485331447285458
0.7502347478776114
0.7531856124245746
0.752778547932055
0.7504229709336422
0.752750732887251
0.7550682397933034
0.7336207247434404
0.7350695145801524
0.7368722094134251
0.7342106254197319
0.7357687785277117
0.7372097042807558
0.7395896869098338
0.7395896869098338
0.7408015095726174
0.7384325914048888
0.7385551623877357
0.740132820397764
0.7412549835158908
0.7399975885030815
0.741049111817862
0.7442208250442441
0.7423691135467086
0.7441331947065261
0.7473386891183341
0.7479063459443286
0.7496073126785487
0.7495944188103045
0.7502403090292377
0.7520779580734765
0.7525459543632269
0.7540025873650825
0.7550682397933032
0.7538103195630925
0.7564962513341901
0.7392463783826421
0.7402562837642285
0.7418404168729468
0.7440327267489047
0.7440327267489046
0.7398415217567635
0.7409058501641363
0.7418057289371787
0.7426968562557069
0.7446576378210833
0.7430834852903957
0.7441565114692865
0.7455074725466727
0.744546857757234
0.7454028006259358
0.7479767165480756
0.7476261909437752
0.7507881647464477
0.7516824135440193
0.7531286862657537
0.7524657551351713
0.7552552403606595
0.7553981637792414
0.7564962513341901
0.7574911574990892
0.7434413024597488
0.7447348322882449
0.7478821254021524
0.7478821254021524
0.7462385528763419
0.7459678237470956
0.7445505870083488
0.7447396382115378
0.7495811781649253
0.7510940333749163
0.7510940333749163
0.7521664740071722
0.7494642150027483
0.7522694544044127
0.7536095250190501
0.75360952501905
0.7461981177939531
0.7464871250439423
0.7478381334453487
0.747548486559399
0.748329972369567
0.7480164843947791
0.7481510925511092
0.749142095001027
0.7511562411430025
0.7515654926133292
0.7534505581367749
0.7538091023669297
0.7559042361844909
0.7554706890130259
0.7574911574990892
0.7580334005190592
0.7536095250190501
0.7483739923452629
0.7474966521762261
0.7492473371443862
0.748306753888185
0.7485109151448374
0.7520965033135648
0.7509999822858678
0.752347423912207
0.75360952501905
0.7499270609319862
0.7494060450178953
0.7509407207441032
0.7508746823761842
0.7508326894520022
0.7509660881098854
0.7513272758877886
0.7521492432518758
0.753633106761642
0.753834679416439
0.7561836515135135
0.7563958220340677
0.7580334005190591
0.7582397641308434
0.7544951145073505
0.7514225934944074
0.7510510686174959
0.7529046818287776
0.7511650072801637
0.7533202536364739
0.7544951145073505
0.7527815873284884
0.7522208016224059
0.7530487809538784
0.7534263691684331
0.75337056759796
0.756048362611356
0.7562116460960805
0.7582397641308435
0.7580216172925648
0.7541992460588062
0.7557602423477804
0.7550012442595763
0.7541785767959304
0.7557602423477799
0.7559165099244927
0.7551374042140103
0.7559389391557131
0.7558237171961558
0.7580216172925648
0.7575638850432043
0.7567383933177793
0.7567383933177791
0.7575638850432043
0.7723389660265885
0.7722533810493898
0.7741780840445448
0.7700884166976398
0.7718077422132829
0.7779709179216576
0.7778615756197527
0.7760332024943077
0.7749670560368098
0.7749390978689176
0.77792438626275
0.7773953717210481
0.7746358988068679
0.7767821424442473
0.7736085640620146
0.773669122528544
0.7654124814302569
0.7674420983067848
0.7647227164895973
0.7623794234176754
0.7643093751486447
0.7659455296018136
0.7637578929374401
0.765931907611524
0.7682447874456263
0.7700971285581217
0.7679603064508306
0.7677136845513495
0.7747558395828885
0.7773471483355869
0.7739480002469682
0.7773471483355867
0.7768079748108857
0.7739480002469683
0.7767773808167991
0.7775848345408897
0.7742806399735238
0.7731231351866245
0.7761183582588689
0.7740707875504079
0.7761038671230461
0.7766966820866025
0.7730688281769932
0.7705315958887717
0.7699326544455153
0.7730998234778318
0.7754655059686725
0.775596296982355
0.7724626445892514
0.7709987483426454
0.7740907009837822
0.7727065140922226
0.7769567401297409
0.7768593296683887
0.7770044784259368
0.7735244382028571
0.7731610122884018
0.7747779549570879
0.7714930300257343
0.7718366261693689
0.7751297652706518
0.771776595296349
0.7609962588891892
0.76317351515386
0.7649788811964099
0.7625907537198985
0.7673212640825379
0.7647365726210905
0.7641319141306339
0.767284083320991
0.7723556850752787
0.7729808352802491
0.7730704804460116
0.7757702916950403
0.7712728747437392
0.7751452377533302
0.7742030154335585
0.7709426781737518
0.7741892935359448
0.7700917384041779
0.7681559172119449
0.7733011125704722
0.7699396870404467
0.7718368284121521
0.7754973259191803
0.775000805471326
0.7731046490869126
0.769372565225964
0.7734941283553717
0.7714041802841093
0.770016046732007
0.7705124207959396
0.7735819228071419
0.7697992482877255
0.7589068993400091
0.7613471429325915
0.7632712891471326
0.7605851076730451
0.7651509804069326
0.7659223691278713
0.7617032079356993
0.7643220191095309
0.7672876766344591
0.7700470708402632
0.7706832388474111
0.7741806767666565
0.768884038044961
0.7730235250610218
0.7716571033212575
0.772400360213969
0.7687808617724691
0.7697471929250773
0.767681600711204
0.771576327538786
0.7673105457696423
0.7649101533863797
0.7711105223120925
0.7665207453872681
0.7738243071437295
0.7730277017981183
0.7710951209544791
0.7719811429834657
0.7672710489888528
0.7689385324347586
0.7717063953065101
0.7677526072965434
0.7710396667115517
0.7675710439537023
0.7561417442642756
0.7588618257649223
0.7603835041232029
0.7588647230630596
0.7573322580465892
0.7626481245991049
0.7582993727342335
0.7612426555097193
0.764737257793387
0.7670790299664314
0.7672872912695217
0.765277713181474
0.7700838547784654
0.7685375111220755
0.76907240535385
0.7654236792740995
0.7652963901855353
0.7619717616885417
0.7635730629770291
0.7684142610083938
0.7648293307721257
0.7708066715756211
0.7689696820613631
0.7690919410057557
0.7644331713734549
0.7655193838462945
0.76872776546301
0.7644498577126145
0.7527581862869854
0.7557778476653575
0.757173886017367
0.7536110505223305
0.7539682771998625
0.7583103617242252
0.7574512911910044
0.7613270913325382
0.7635043581230953
0.7620320110430936
0.7580174826747627
0.7635472463727838
0.7611480718027507
0.7667208271540239
0.7644553978048192
0.7651875411464831
0.7599546786028816
0.7613582047565712
0.7654860921007915
0.7650138931343758
0.7674396228011702
0.7658916999347342
0.7611843787191556
0.7620329822841125
0.7656229799096727
0.7605529958428358
0.7483454576677189
0.7516665756015611
0.7529136482932445
0.7494114174598047
0.7529754171009518
0.7503306397304917
0.7537621211745157
0.7577466430216518
0.7589589709864225
0.7552365110643146
0.7599054610320567
0.7590493680146536
0.7564279849886463
0.7628081164658465
0.7600005603915295
0.7616973314152833
0.7615394646173225
0.7568925149927425
0.7575207254263915
0.7622788596880598
0.7629794314314856
0.7626917416524287
0.7572476657570649
0.7572181740417286
0.7435212488986814
0.7471444179758985
0.7475305166816606
0.744156969289632
0.752919140860345
0.7432825954879732
0.7470450765370524
0.747468671990588
0.7549682491481206
0.7500529115985238
0.754033568106555
0.7566510610736252
0.7517276797939124
0.7543555608248562
0.7513536764291107
0.7550000945377395
0.7576344230550388
0.7584155126373293
0.7531844439207064
0.7577955626459366
0.7528136490866508
0.7530996802188133
0.7584644378412565
0.7588620384376779
0.752873499782588
0.7543905202423671
0.7524425350757368
0.7381032747166117
0.7420171895172679
0.7385381002098371
0.7382795406929236
0.7414456047371686
0.7498272723813705
0.7446340838482112
0.7512638418609712
0.7464214496123517
0.7485655884330561
0.7529074447543795
0.7477345675220732
0.7465588777500106
0.7485036018982527
0.7481935765365294
0.7489789705867282
0.7545764028221992
0.7537510616294228
0.7538683722513295
0.7484003102582061
0.7485055734896681
0.748459738181139
0.7870730803453206
0.7883407154108594
0.7896888169454696
0.7854756942104953
0.7880074445841362
0.7979941458096286
0.7969227660182201
0.7968677197007572
0.794841098979096
0.7958012329433877
0.7989149140536816
0.7949284767442871
0.7955233176701475
0.7935486382606917
0.7962372905496284
0.7938873653747135
0.7793374651977181
0.780790858532404
0.7787369578745675
0.7756669961431022
0.7770633224455502
0.7796958543723226
0.7781410638439271
0.7966093198782079
0.7995525547961458
0.7971315808167221
0.799982980169423
0.7999989033158712
0.7974971634736817
0.800147827749493
0.7999989033158711
0.7974971634736817
0.797470780518412
0.7998647985031266
0.7993024841123703
0.7973095561018708
0.7809135623230758
0.7825881369489106
0.7841090193012941
0.7834522366496339
0.782558650044758
0.7857430152630912
0.7865638696378768
0.794589491241993
0.7920396755969132
0.793910141477853
0.792422877647936
0.7886760891048036
0.7919404997911217
0.7901673208739767
0.7908792806381074
0.7930900293612355
0.7885319021525755
0.7909319066353789
0.7984586540735207
0.795845724220751
0.7943780885683152
0.7934383786095
0.7945270577477295
0.7958444750791472
0.7921446947721069
0.7932340892082822
0.7751585468027855
0.776712819996718
0.7794039041823081
0.7777136271475564
0.7970979457300575
0.7972460899602989
0.7964276878234254
0.799160220546
0.7965719318665582
0.7994377089011326
0.7990248137244328
0.798336905270215
0.796953586798404
0.7840852917719132
0.7808414608767442
0.7828262511871193
0.7865127960812722
0.7859284376973188
0.7929468595866319
0.7906471040812554
0.7889769689260654
0.7912239549776442
0.7886349569416852
0.7950680573389496
0.7934910309804212
0.7931412090245483
0.7954184183438894
0.7930405008197772
0.7919912020918235
0.7943043426650257
0.7903145288561271
0.7739029364219069
0.7756212415172248
0.7785139509262217
0.7766023966446727
0.7959749785817789
0.7957136462116268
0.7984913431688166
0.7953909529486172
0.7984413252977445
0.7975286795118154
0.7974262586001967
0.7958414917183937
0.7827496975577375
0.7844626677818265
0.7842479744004774
0.7788793357525178
0.7807036805331454
0.7874301552000356
0.7866549657018266
0.7913950603838952
0.7887523041644745
0.7896995074204655
0.7852434228511658
0.7938739909505756
0.7968343090748882
0.7842625447748829
0.7910655857468648
0.7921370928650103
0.7913080081499134
0.7938255611897597
0.7936390195339496
0.7920046354364557
0.7894771368051535
0.7876628293060816
0.7857909385175532
0.7719347336014348
0.7738219719889834
0.7763505647791247
0.7753203101958756
0.7743044076165096
0.7941763563357704
0.7936940104423388
0.7964789686073104
0.7929748953892517
0.7954454800342732
0.7949908259173933
0.794929469565144
0.7813369516702197
0.7823730155370116
0.7765852914905979
0.7783950070102074
0.7881345593790096
0.7841349701288872
0.7915190897773859
0.7822161306177423
0.7891655624875956
0.7924722503181554
0.7895455080382358
0.7880872631148033
0.791350844421003
0.7849363760130669
0.7871573997127222
0.7693242134525066
0.7713867089427414
0.7738313412401191
0.7714077187436048
0.7917683147049263
0.7910800261060691
0.7940555875042902
0.790019446527147
0.792275092883915
0.7918694676095902
0.7927242278122212
0.7753091473356353
0.779694029844312
0.7779257024263366
0.7729129656696082
0.7814807247430137
0.778745783983111
0.7855590662231257
0.7887784839726704
0.7901729961356915
0.7815680271486161
0.7866243245625759
0.7892574527710848
0.7873808476389481
0.7859848268889366
0.7843742593233741
0.7655610483052715
0.7677887204315542
0.7701286904548006
0.7679263248792932
0.7882726552435958
0.7712328029582765
0.7699000374763141
0.7875772861416891
0.7909804854945995
0.7863293936606431
0.7886550828830953
0.78929990643156
0.7890639048222717
0.7769273337262893
0.7754877135484105
0.774223149233733
0.7804706717067311
0.7769639267559664
0.783311453607921
0.7873534898907532
0.784836784375693
0.7799568116740064
0.7834164654076402
0.7855457224084352
0.7820022698520129
0.7613186352164646
0.7637066811206605
0.7650223582248358
0.7632424057881553
0.7843244800386483
0.772271388423431
0.7609706711898496
0.7657214224166391
0.7679320763826898
0.7820654768409748
0.7843690851951016
0.7838052996212329
0.7866272588269342
0.7814571306557009
0.7827793372209592
0.7858600418973364
0.7847657666959443
0.7811498994861344
0.775274054897722
0.7717802927864046
0.7782783437781209
0.7747267075742214
0.7807418453351468
0.7829045257982207
0.7803713719735569
0.7800723959752317
0.7773132424482551
0.7791162770961443
0.7563729177430505
0.758908962460913
0.7577934585274998
0.7565160643609506
0.7617139635748488
0.7797151818482896
0.779259759265088
0.7779878742040677
0.7699092804880525
0.7661321842269903
0.7786863430298449
0.7794195277185076
0.7825375090908241
0.781801879836462
0.7773555614740991
0.7726191983112686
0.7693002383286691
0.775586643375486
0.7720788656792248
0.7780367319960413
0.7758616704075864
0.7742715479486616
0.7951474169695391
0.7951891692177842
0.7959748594860413
0.7918565832559223
0.7926091941462047
0.8105167661081846
0.8087233309599549
0.8101579783141972
0.8076509735344681
0.8093679049002568
0.8121734226620679
0.806650513884326
0.8056486501051917
0.8081840541615369
0.8069055482535115
0.8086889312089435
0.784980681694311
0.7842639619123667
0.7880412555354449
0.7889592598447913
0.7903366201615468
0.7882301381323458
0.7872712380004278
0.7933357862982272
0.7911557793500832
0.8034604014195976
0.8058509469866907
0.8043956869944542
0.8047635138111685
0.7947648757649367
0.8037237488201735
0.8018439826920186
0.8009662707873019
0.7980895224252837
0.79905738426714
0.7982301215021846
0.8008757796730192
0.7969718132674702
0.8025820700906104
0.79968018600046
0.8109456157763326
0.8145526287013864
0.8131828104778789
0.8145526287013866
0.8151332815923685
0.813182810477879
0.8148503347846512
0.813572955626373
0.8122616126595952
0.8136959165186042
0.8150966919055868
0.8134820103281099
0.8099954757534286
0.8119129205501158
0.8103823767762571
0.8065322213195659
0.805329221104313
0.8072989013015933
0.8085460580661531
0.8090038807349791
0.7945078196306731
0.7857574201904369
0.7841646853832446
0.7849365764692221
0.7880195205999296
0.7908675349931064
0.7871757627067727
0.7919397062150159
0.8135821082722776
0.8042457861231523
0.803076903554293
0.7961794996563717
0.8019300685217493
0.7990512226222607
0.7969737630061513
0.8004533164087787
0.8133874711864616
0.8117982192634888
0.8140496195542595
0.8134212416285378
0.8149991700646955
0.8149054008207727
0.812727028694767
0.8105797698863811
0.8050361561585587
0.8036081109012324
0.8053030593420099
0.8069245711662489
0.8104898560256969
0.8059853832742884
0.8076882638859584
0.8088060742869155
0.8088245579491674
0.7935987035911694
0.7958835995159054
0.7940844382243027
0.7832619405243405
0.7893979668453587
0.7840824444302509
0.7864967340101215
0.7874114008979874
0.7901535061113317
0.8132382987748821
0.8026883376286341
0.8012703155440862
0.7977960171213009
0.8004247525680642
0.7985559886589232
0.7956300873898677
0.7961587745423683
0.812261021159154
0.8139361238491941
0.8130357228116177
0.8146751777949597
0.8140216892982756
0.802922680365912
0.800923400367609
0.8122177087630861
0.8099362260554432
0.8045301993986397
0.8034992593616922
0.8067544773133156
0.810192184278998
0.8127121883841697
0.8063433968167383
0.8077368522668723
0.8080126958389969
0.7927139245628895
0.7924365236115758
0.7815939653689278
0.7875709313978506
0.7880182115955678
0.7845395916690833
0.7849559665197782
0.7824562099469061
0.7853579640308587
0.812193707816266
0.7992817682321733
0.7983611309029203
0.7948929659952332
0.7945536997646734
0.8111343286505565
0.8132712831358513
0.8113651687710574
0.8125240411189889
0.7982190771570136
0.801382391649381
0.8010532077317123
0.8099725679196463
0.8112702341479421
0.8046882691776014
0.8029474660273936
0.8084456952372926
0.8069446934757617
0.8055636052414281
0.789911999409144
0.7897051460533041
0.7922152488377084
0.791282314239986
0.7841048353932561
0.779241284340874
0.7819191282653868
0.7850842929821004
0.7828689461135045
0.7801382384217095
0.8105253909432436
0.7974026522338117
0.7949059747897994
0.8091887438246993
0.8113577550925014
0.8091172146454142
0.809836342167659
0.8002197834029716
0.7986703969964318
0.8086399033452333
0.8083382880702492
0.8032119567557173
0.8015040201121374
0.8061055236061035
0.8050647649518472
0.8032215319193411
0.7919730727896112
0.7900753634174044
0.787462051594615
0.786756102092266
0.7862607154523128
0.7812161360706593
0.7786151662345723
0.7756125034490802
0.780976844937449
0.779351972322147
0.7765255560474726
0.807674144692128
0.7957749505415656
0.7941085797776272
0.8061920265859713
0.8060681602529892
0.8087271482407159
0.806635863654419
0.8064725070819635
0.7973031274915917
0.7992049342301177
0.8050204887268181
0.802122749263072
0.7999588975958806
0.8027161322334687
0.7826068279383096
0.7903383559356579
0.7863211553859115
0.7885711742622395
0.7845503608218866
0.7797440164433056
0.7753512078118358
0.7740412727846755
0.7714511956282837
0.774143479951998
0.7698828584350786
0.7723686253429566
0.8043128936397846
0.7938562695833146
0.7972322930769141
0.7922848093307485
0.8026707944236494
0.8022909288640906
0.8030740969148906
0.804760055738086
0.8026863138129504
0.800842323532923
0.8011759604732429
0.7952833664000121
0.8003046142286537
0.7977948311359188
0.7996430883910718
0.7951439982880261
0.7881974533209933
0.7866636051357613
0.7805121942996969
0.7841331585687278
0.7827176937881716
0.7784692064619805
0.7731081437030946
0.7684614511198521
0.766504672774894
0.7660595323072662
0.7674089938973664
0.7988186274882244
0.7986247424707649
0.8001959861140626
0.7918504101671716
0.7901174771392167
0.7985509739699665
0.7981759014672994
0.8002456468461366
0.7988379020215833
0.7929909504848828
0.7957824361014465
0.7609749287517932
0.7612626108634198
0.7621550031972324
0.7658649155833794
0.7623236892820182
0.7626526161440921
0.7643141213372638
0.7843923549996448
0.7851381899961815
0.7894928702057403
0.7847448113115537
0.7836644059275315
0.7871217686893438
0.7834796630759351
0.78251348324705
0.7756076864196338
0.7782426404652808
0.7721223984502877
0.7728902286790398
0.7721833079799626
0.7745879472694428
0.7658071913726857
0.7704642438607457
0.7682398034325513
0.769339915913149
0.7688945036197533
0.7653412093923938
0.7816320329692272
0.7786127190648201
0.7762541439055033
0.7788122825013827
0.7845276452120648
0.7752739907497549
0.7778222135090569
0.7813696802103128
0.7699193419710103
0.7708614908116519
0.7579898207848028
0.7604695111713196
0.7603793662972114
0.7601908334937016
0.76704364850632
0.7833123901447802
0.7814912835275375
0.7809205968296701
0.7788287702179186
0.7800046146519043
0.7776966196924783
0.7677250995795868
0.764590736848025
0.7641517550217828
0.7732631607022816
0.7753878409814245
0.772578573204234
0.7745321278733802
0.7646167858537057
0.7643008234840376
0.7707123026568089
0.7664693596882889
0.767287311936481
0.7543243378409336
0.7565661294671912
0.7594249260178109
0.759029608736162
0.7549877548730132
0.7516373850102349
0.7550614082287178
0.7607582863522075
0.775031783661665
0.7762921005842011
0.774107639350225
0.7712411942690877
0.772935163112154
0.7706254129584542
0.7670258367114654
0.7609004895977266
0.7685124904291418
0.7680683380719322
0.7588456589914536
0.7594321126754674
0.7608314292979063
0.7601930121304493
0.762213862060343
0.7629283035891999
0.7495516734568951
0.755165303158944
0.7547870490039008
0.7496287991180492
0.7457620354258607
0.7497492929150161
0.7546478641977296
0.7540586780853448
0.7679100838201675
0.7663635005524861
0.7626971977978662
0.7616030138197621
0.7578268101725522
0.765269606894229
0.7622466252385124
0.760255669184806
0.7609345963020097
0.7552417685642431
0.7531712852687675
0.7535842922473819
0.7555721196228418
0.7437177095412254
0.7491935786104035
0.7485806516112207
0.7435482215937727
0.7426468485729649
0.7388150119055766
0.7434118773013195
0.7476179571494636
0.7480836352577215
0.7582538811277624
0.7581427700850151
0.7535643870780853
0.7529347872578285
0.7476130245308866
0.757121143646399
0.7476877705950967
0.7482695161635771
0.7458262658974565
0.7466748899149397
0.7524269828267366
0.7481204073252485
0.7530891734041391
0.7488375843405956
0.737284393238464
0.7425809109156908
0.7418299830736396
0.736017056113301
0.7312486416790412
0.7360836919471453
0.7396351179340178
0.7393812763869966
0.7407612400316343
0.7397506441763033
0.7478849199898399
0.7427540590297202
0.7365477430160682
0.7437625623902552
0.7492378453450924
0.7484618920599254
0.7400125890286078
0.7425451181779696
0.7412705353440884
0.7409696317938378
0.7428375847765766
0.7297393152450821
0.733640060940143
0.734214633000124
0.7280459033848231
0.7278286655389306
0.7234943279302265
0.7312449142236431
0.7311683609480746
0.7326328312416893
0.7325374099672864
0.7334557492446855
0.7327968165590294
0.7362199466598934
0.7335279049487365
0.7311388757737756
0.7317446079489172
0.7254708816684676
0.7326082724103423
0.7406804776771444
0.7326384192224474
0.7341298326246858
0.7215511098602843
0.7222168104339531
0.724580525189497
0.7203426127366025
0.7194484046524129
0.7251021053407597
0.7240313054830233
0.7201983561054249
0.7212727887952132
0.7242608383587877
0.7128871602743205
0.7259047547777778
0.7252470181203979
0.7247836816793064
0.7251588656909763
0.7249316753839734
0.7238213258826517
0.7178949632685077
0.7201055015500745
0.7222834258024856
0.7196044875775571
0.7204278532632008
0.7235766149844859
0.7218643535858161
0.7241800681313036
0.7223891186831554
0.7143932308864617
0.7154582956565915
0.7158202463804928
0.7218562206298501
0.7155750038100076
0.7220632956100029
0.7149999568199136
0.7108800000000001
0.7138633045466091