<?xml version="1.0" encoding="UTF-8"?>
<VTKFile type="UnstructuredGrid" version="0.1" byte_order="LittleEndian">
<UnstructuredGrid>
<Piece NumberOfPoints="1331" NumberOfCells="6000">
<PointData>
<DataArray type="Float64" Name="u" Format="ascii">
0
0
0
0
0
0.6293369697555938
0
0
0.7629383001596074
0
0
0.7862278412515663
0
0
0.7897646958968686
0
0
0.7907492475565013
0
0
0.7902580247309318
0
0
0.7903267803911326
0
0
0.7809519804573454
0
0
0.655522894919433
0
0
0
0
0
0
0
0
0
0
0
0
0
0
0
0
0
0
0
0
0
0
0
0
0
0
0
0
0
0
0
-0.2231857157314214
0
0
0.7736943951252844
0.10055010830422233
0
0.9296448364578206
0.2248624752273847
0
0.9564766016667452
0.261305577901606
0
0.3278782451179367
0
0.9604916208242921
0.29551620632320574
0
0.9610083605482346
0.9607598324949164
0.19737133609850865
0
0.9580699648872598
0.07802985321382988
0
0.9338858588789146
-0.06732101750487157
0
0
0.8010631054368228
0
-0.1199530937519455
0
0
-0.0723404926766582
0
0
-0.037937138556898946
0
0
-0.008835394752666063
0
0
-0.005363271054797714
0
0
-0.024181099254840955
0
0
-0.01824819099889217
0
0
-0.04978882165486512
0
0
0
0
0
-0.1961796351152246
0
-0.07789221714261858
0
0.8008575384932292
0.13890600809777606
2.499313447656034E-4
0
0.9602322526216086
0.28563718233919455
0.045684463385460755
0
0.9878716985808486
0.38152224353420844
0.0315430626138431
0
-0.008050274347836997
0
0.4268688074126033
0.9920062944792852
-0.05877817595164036
0
0.3941116287917043
0.9929129697793951
0.9925189726904508
0.29648076726769806
-0.11362446660223925
0
0.9875570217594531
0.18838550641409577
-0.07997186753010582
0
0.9643814609602691
-0.003216760340381625
0
0
0.8136711887419749
0
-0.0930755988265501
0
-0.14985923891527897
0
-0.06443998582079379
0
-0.0834266412810955
0
-0.07950482599872427
0
-0.008624448911008562
0
-0.06448519778994262
0
-0.042296173195584645
0
-0.04449252906640578
0
-0.02584653370550101
0
-0.028217178265578378
0
-0.011155986810422326
0
-0.049600337903772516
0
-0.030122353334910323
0
0
-0.013025012477018351
0
0
0
0
-0.18445454087590518
0
-0.08700921025109981
0
0.805626035040809
0.18606461073341593
-0.04838816801602045
0
0.9660556941092723
0.3161884655386205
-0.0323414829875743
0
0.9933539456427165
0.40909515716573003
-0.03435449661902778
0
-0.07304044488251484
0
0.46540619427391766
0.9974907813169297
-0.07933420533831058
0
0.4294124688926939
0.9981787419267399
0.9976341961697307
0.3521005110335522
-0.026422655550045707
0
0.9932993054902196
0.1676187940871023
0
-0.07341301752673689
0.9688127205626748
-0.022589706834902926
0
0
0.8141375573526309
0
-0.11006634402315822
0
-0.14767699891088085
0
-0.0809824929255585
0
-0.088018331303584
0
-0.06799885893057266
0
-0.029557337142208765
0
-0.06390470750069073
0
-0.040193017976438684
0
-0.07466635125570907
0
-0.05136818835681111
0
-0.06606635862683376
0
-0.007353341862075647
0
0
-0.03710573621872638
0.011720589057953588
0
0
-0.019275442317189032
0
0
0
0
-0.1751328338541928
0
-0.1042838883951201
0
0.8065191544312035
0.18001459804095543
-0.06553559589316203
0
0.9671381185258152
0.3345708579329881
-0.054707418187748796
0
0.9943537465715978
0.4388033044632826
-0.050436806248687384
0
-0.06248122186999395
0
0.5042838036028156
0.9987039665548588
-0.013455361098847872
0
0.46892020527853856
0.9989356580100582
0.9982450648990967
0.38530543064836814
0
-0.044981989872678346
0.994098366834463
0.21906442853105454
0
-0.07910607115915651
0.9682836898983359
-0.029784341663218087
0
0
0.8139904065057147
0
-0.1105827589493225
0
-0.10652766418658292
0
-0.08319884032794045
0
-0.07321948495910481
0
-0.10703324399616619
0
-0.05037608851431005
0
-0.10668410150541131
0
-0.03981679202323784
0
-0.0525909862572267
0
-0.05220128673082621
0
0
-0.08283649470615838
-0.010103181454516804
0
0
-0.054558194741118754
0.018092266561077167
0
0
0.028274922391229407
0
0
0
0
-0.17711547728574709
0
-0.11614812158127923
0
0.8063548608861068
0.21016644882345858
-0.0987500838889071
0
0.966318134756838
0.38507740329268714
-0.08848498689528662
0
0.9934315262147967
0.4826706270527444
-0.06954950559246671
0
-0.03800427673521455
0
0.5275240514087791
0.9979775993978417
0
-0.016017081010048048
0.5216996965822923
0.9980864077549113
0.9977767364266198
0.38251764276293615
0
-0.019629472282042246
0.9932777214135644
0.2226233138255921
0
-0.06918129033266947
0.967706978083001
-0.028317346343820476
0
0
0.8135369452814435
0
-0.11435287201571674
0
-0.1373207010964864
0
-0.08687125763262388
0
-0.04550204218668405
0
-0.12137868313769347
0
-0.04775540384470542
0
-0.053776017981402996
0
-0.03274893949789633
0
0
-0.09081119280115345
-0.036352235097330314
0
0
-0.03387926499704145
-0.03159179496172263
0
0
-0.003300943032810375
0.014510144673563907
0
0
0.0081317925471448
0
0
0
0
-0.20293427027700253
0
-0.13953193051729953
0
0.8062184666305553
0.1691382276941621
-0.11287050113353118
0
0.9625211417069467
0.3565802293582198
-0.050161303213839464
0
0.9883452314869329
0.49063012769460973
-0.0057563181376210455
0
0
-0.020716436897906823
0.5343290621261777
0.9924275457580514
0
-0.031203490404731474
0.5292501675616096
0.9926148658608049
0.9921721040408737
0.40562567628961
0
-0.04402543456858668
0.9876592525361914
0.20831476405144136
0
-0.02887339498574416
0.9617262292488404
-0.02465680618215617
0
0
0.8084941147586998
0
-0.06776668919784144
0
-0.12522245591153588
0
-0.05488482201335451
0
-0.06741127162845693
0
-0.023075342487717462
0
-0.06468141698108461
0
0
-0.08102600827429597
-0.03828067213529785
0
0
-0.045737693020573296
-0.04122690196073642
0
0
-0.010523195686490676
-0.034021477970666715
0
0
0.013742242059847844
0.020298709502617297
0
0
0.013161667000425146
0
0
0
0
-0.19518014333165465
0
-0.030704574520460378
0
0.7930289681470476
0.1381094742598474
-0.07322777920735744
0
0.932812478148969
0.28101499390027046
0.0027255788374770055
0
0.9580087530718887
0.40838380523200796
0
-0.002981457267957366
0
-0.028067280620263525
0.48444386721051086
0.9608595302639708
0
-0.02245608923499072
0.41374605802455616
0.9616227496712724
0.9602454885137631
0.3303945414389205
0
-0.06362973157211883
0.9563271480359942
0.20040097677639854
0
-0.04055480041445025
0.9311349982009921
-0.0034262284275558175
0
0
0.7813500340564171
0
-0.044507186551409256
0
-0.12891082768200104
0
-0.024681213521096982
0
-0.07664767277757846
0
0
-0.06334630679835195
-0.04970320811493587
0
0
-0.07028842150030366
-0.01687642718405456
0
0
-0.005061494230449674
-0.028773919108430957
0
0
3.812816483841342E-4
-0.0371005396876063
0
0
0.012950190519104586
-0.004885001865354535
0
0
-0.021580155317512936
0
0
0
0
-0.19045654287052824
0
0.0032768672655188453
0
0.6472683260161122
0.12395785166628627
0.006515852145842827
0
0.78035858337533
0.2604664437287599
0
-0.005099503363148226
0.7901857928470156
0.340273136066866
0
-0.030965693035086745
0
-0.054249449853179595
0.35972481601172657
0.7912605167214114
0
-0.0429857484886066
0.3505202515928421
0.7907754495581513
0.789933043728661
0.3048680732613995
0
-0.02712765914647716
0.7867022237457685
0.17361409327089342
0
-0.059816449692530645
0.7645295813019709
-0.01385827439022904
0
0
0.6363368718168505
0
-0.007747758328895102
0
-0.14069554786999305
0
0
-0.014063074656951722
-0.07921524339267721
0
0
-0.05002499185954789
-0.08029983159878994
0
0
-0.04446405764633654
0.003070049867047823
0
0
-0.01224803008068307
-0.042081189637268396
0
0
-0.04101989386266258
-0.008158326228929277
0
0
-0.01656349659433459
-0.008847401029008809
0
0
-0.04023144384339026
0
0
0
0
-0.20834717075975137
0
-0.025856814673734973
0
0
0.10954603561035786
0
-0.055768450550549555
0
0.21840571550294785
0
-0.04594386376913095
0
0.26787521260382885
0
-0.034041421637588797
0
-0.04080879700237671
0.3416167347261838
0
0
-0.023343241908123136
0.29025106817102836
0
0
0.21400806124413727
0
-0.06230204919434564
0
0.053365349597570104
0
-0.03416092269876226
0
-0.0789657093699241
0
0
0
0
0
-0.01134370231388857
-0.13437347871626806
0
0
-0.016156956702765995
-0.08605605360333325
0
0
-0.07495282613832571
-0.03796355471942537
0
0
-0.016691481288889923
-0.018353280853425524
0
0
-0.06509643972470107
-0.04005949150995781
0
0
-0.05706307962707242
-0.017430514398593337
0
0
-0.04136248380510709
-0.011366257803996228
0
0
-0.017683720596726276
0
0
0
0
0
0
-0.031047359747634184
0
-0.10127687792241617
0
-0.012046009193068523
0
-0.062285167500399176
0
-0.0413137196572114
0
-0.00769780680943317
0
-0.050231245009585784
0
-0.0319029509755907
0
-0.01604373253504056
0
-0.04596350278930347
0
-0.030440860468350938
0
-0.023961978205393187
0
-0.05651619823788421
0
-0.03968606356626772
0
-0.07694730193822498
0
0
0
0
-0.023946405627460296
0
0
-0.06208621788249752
0
-0.12977457260364697
0
-0.0541907779528831
0
-0.09175886624412309
0
-0.0904188323136173
0
-0.06029335678043541
0
-0.058177451556800604
0
-0.045360136306768606
0
-0.09146227376060682
0
-0.0297084919708613
0
-0.026602570759551084
0
-0.045650237734550896
0
0
0
0
0
0.003091998498953539
0
-0.1252634312191057
0
-0.03612947260522751
0
-0.09658654980953356
0
-0.025056056870834193
0
-0.1085417983572232
0
-0.02280341884855752
0
-0.03277909303374348
0
-0.13836994667393213
0
-0.05528493320634948
0
-0.10748726027737286
0
-0.09203324163649686
0
-0.03797600523234909
0
0
0
0
-0.02041362692442084
0
0
-0.02597408791851641
0
-0.1072023968746662
0
-0.06968164937400156
0
-0.11928015123748766
0
-0.1038605629867731
0
-0.07974832161457895
0
-0.07368242000457298
0
-0.06297363722749695
0
-0.04385211638474193
0
-0.06457724312377101
0
0
0
0
0
0.006992834861433292
0
-0.1447526226548028
0
0.006666160686226921
0
-0.1448216051476243
0
-0.02808634096052354
0
-0.13307926071535606
0
0.02187684090574331
0
-0.04821475952843716
0
-0.10120246856939358
0
-0.039720893650830646
0
-0.055118523786683936
0
0
0
0
-0.05087967663393055
0
0
-0.010669830011134722
0
-0.15235494510955064
0
-0.06470959450591945
0
-0.10737679164519288
0
-0.09707960322845914
0
-0.10388912036210413
0
-0.06481577616073243
0
-0.08215137264073212
0
0
0
0
0
-0.017608055198728604
0
-0.12177079018048047
0
-0.00834148495921713
0
-0.12056537205346347
0
-0.021970463629194456
0
-0.1344677009487025
0
-0.020549580745950532
0
-0.01773961902655911
0
-0.07098651250269768
0
0
0
0
2.7952741892798134E-5
0
0
-0.026614694287252712
0
-0.12822178479685734
0
-0.0631979871198917
0
-0.07006805710883585
0
-0.06400561477094957
0
-0.08833051179621682
0
0
0
0
0
-0.006142030450755444
0
-0.09508998117607319
0
-0.014924916571418924
0
-0.10430805031617928
0
-0.010546210396182613
0
-0.04458240281361389
0
-0.03055727870732561
0
0
0
0
-0.026159651987343716
0
0
-0.033610601856532495
0
-0.08633748633007471
0
-0.02749907089343652
0
-0.11037649601149767
0
0
0
0
0
-0.00900626427371659
0
-0.07424046226924606
0
-0.009790462340859514
0
-0.030639755342942384
0
0.0048518566050207304
0
0
0
0
-0.004318545024842496
0
0
-0.03364897112722517
0
-0.07151281509784839
0
0
0
0
0
-0.012074102520671558
0
-0.04879962979089999
0
-0.025207085409331212
0
0
0
0
-0.005721633119916441
0
0
0
0
0
0
-0.015170906961012304
0
0
0
0
0
0
0
0
0
0
0
-0.08827056792814679
0.004657216684595066
0.046213545411635935
0.044631343447911524
0.02023388612197419
-0.001281952260193231
-0.0812889163361059
-0.10782294663351401
-0.11504836636669187
-0.10544320721101196
-0.0921399058834193
-0.07387174141939724
-0.06967578741619616
-0.10101742617046398
-0.1151534451258739
-0.026038616679525856
-0.08137625496105216
0.041714522443928585
-0.04231910162685704
0.07371319901602003
-0.08415012513309711
-0.10351764693907634
0.09387689902783775
-0.09342067578858408
0.02832881159069819
-0.06256813132850338
-0.13536308778743458
-0.11374151804619399
-0.17262774160411032
-0.11379770086969106
-0.12590217258666805
-0.1275317986664897
-0.13443413687539071
-0.05570080668773201
-0.11827433035277075
-0.0053460679327898795
-0.021089792057536968
-0.08028348408854381
-0.13708055975166722
-0.12062223739557788
0.015504468151070427
-0.11775041252146179
-0.10010170363920097
0.10748567991897141
-0.09425951086368965
-0.14166737448611752
0.14302567338296165
-0.08750585176610269
-0.1613125233014191
-0.06172479193578898
-0.11533727748467461
0.11554493128874062
-0.08687348588094058
0.052832443021085834
-0.03101282081133006
-0.19568728123162119
-0.16717437585358572
-0.11995960585075242
-0.1855523822115813
-0.15968305181258324
-0.1441505724248238
-0.17293483716699354
-0.1065892928179868
-0.12024375242320319
-0.1145372622910467
-0.09071168727007367
-0.08137571326739464
-0.05742153672350445
-0.030238759577521316
-0.017870563700368883
-0.07103438878895174
-0.09542489457883498
-0.13657880475365078
-0.193972640316212
0.03757484878202702
-0.09214093781792349
-0.1988774846580705
-0.20423286992719478
0.1350157077675219
-0.09553049251159879
-0.1962669126463563
-0.16838100853945812
0.11287880499781743
-0.085553201292553
-0.1543023293262515
-0.10668755603885748
-0.09065231151323155
-0.10622380406432735
0.12632466133278933
-0.09477698353019877
0.07438488516331444
-0.023423946161728257
-0.19746704602562434
-0.2024257565391129
-0.12007665208075495
-0.07650359700482882
-0.1825287391850926
-0.1814101236872592
-0.14575124389893943
-0.11706774397467333
-0.10185545514036991
-0.20347250545829357
-0.13333293085477396
-0.0835368722772794
-0.10448491800229577
-0.06595095176803277
-0.08947903886222221
-0.049300062755118806
-0.06200790327216269
-0.011035151907594937
-0.04345245986963287
-0.1166380395519478
-0.14958195824092924
-0.23383392698233865
-0.21345009001511564
0.03825753261136467
-0.09905274105912996
-0.15679702227316838
-0.23744394927435772
-0.1392580333074317
0.05548788793674648
-0.09824606058561051
-0.14799356496140212
-0.17258847347449235
-0.07228430569986184
0.09352038398145646
-0.14798188065845788
-0.13117759450635355
-0.08335638261771926
-0.08089325026103068
-0.08329444854152991
0.09141128050239505
-0.0828035636132196
0.031243942359247
-0.03519622549290654
-0.14539543986106207
-0.24305077064356398
-0.1621274333229046
-0.17479867876116864
-0.11936694048667447
-0.09732917384759833
-0.23118734848926467
-0.16619018880126998
-0.13681941902927217
-0.12587244677244994
-0.13207753991242524
-0.19091545905614116
-0.11667956069844469
-0.10896729070501059
-0.14152420415069636
-0.11035609874564946
-0.07425396024704252
-0.09614452084290297
-0.06954139580793851
-0.018661256630672463
-0.09253130635630462
-0.11091969461922956
-0.18109115419009617
-0.20781143328273713
-0.2211327381946707
-0.11567915141315409
-0.013223986659390579
-0.09183480567612262
-0.18178908322044277
-0.20116643273283338
-0.16586171666872485
-0.025890807693038347
0.041031473470451336
-0.14716227277082028
-0.20224118596802845
-0.17564924046544042
-0.09437327919336937
0.0825241916472619
-0.12278204552882878
-0.1547800400805803
-0.13779263848607304
-0.12961452443306595
-0.12437573143433721
0.06766585329038784
-0.10350295595076635
-0.0404516208289999
-0.0503319311839563
-0.06160340760237324
-0.20340934344235662
-0.20078521518805767
-0.1959956134279818
-0.19384374595225873
-0.09904878024404758
-0.13635424803178595
-0.24089078318053345
-0.18151048310534879
-0.16954788947606272
-0.1159102689458007
-0.15549014289381138
-0.2154728444724926
-0.14678206676691555
-0.08891659678333654
-0.10497555622325015
-0.1079536579248518
-0.0763276703692821
-0.10721606252368683
-0.06850562228278513
-0.034078881677735984
-0.1000331269262474
-0.09651590382950598
-0.19193219486767568
-0.22983541720867348
-0.21952409842307008
-0.13400763235399726
-0.04986118309354381
-0.027394195337766616
-0.12467111902869732
-0.22188204422933835
-0.24270021403379607
-0.16701073095069144
-0.05854400786536245
-0.031450861053625385
-0.13204697032616067
-0.20605025408385036
-0.20912893403752972
-0.12201807222891987
8.818878519085E-4
-0.1446270236493636
-0.15040494832150583
-0.13357769967749458
-0.09827928927489953
-0.15025719838367635
0.007008912393689848
-0.1186399165224968
-0.03939991031451775
-0.043498425859082285
-0.10874104460558082
-0.22460839438150523
-0.2480812689293732
-0.18890978490936342
-0.12737605986676662
-0.1273189098043956
-0.1467999186217819
-0.21935238604606502
-0.18896314338452103
-0.16254885147764134
-0.07693370519238528
-0.15658769832409328
-0.1359931249063792
-0.11856150445196255
-0.0846688271695149
-0.12276932301927877
-0.10673681132567171
-0.10907937600320793
-0.028461940440777767
-0.09811193172817573
-0.02187603137401084
-0.16272843733631592
-0.1929491653910195
-0.18075945438557947
-0.19708085358720495
-0.1678265020181805
-0.06594834355193903
-0.16011136142343038
-0.20652951711000078
-0.18350750841450122
-0.1748719205121939
-0.09950363282261358
-0.16604623508726982
-0.20526541322409111
-0.15535408707830453
-0.09850650952168666
-0.1451606596339281
-0.18718797619347607
-0.09524393684037774
-0.14920603810943425
-0.11037595344949463
-0.10829075659813149
-0.1484023027612026
-0.19468176261466927
-0.18594636341556378
-0.1825114864511622
-0.1380384084889147
-0.12789743257131866
-0.18106849317187812
-0.1073673813880709
-0.1410268436699842
-0.09105011391062438
-0.1290267108946611
-0.12781561684433027
-0.12385950558045035
-0.1359331142701915
-0.07855053412039452
-0.17295779086414684
-0.17190615716362057
-0.13615443222515025
-0.1582072067929853
-0.08341195888329661
-0.20399521557032588
-0.16482205539555184
-0.11469570053581697
-0.06419567117030793
-0.16617667715586648
-0.14892995689985392
-0.08717143836366235
-0.17313766244768478
-0.0945059488086013
-0.11429201246598679
-0.11993458067296232
-0.16861091095295364
-0.15888833760830315
-0.17204360224926185
-0.10270793942108265
-0.12076428420452172
-0.1483862062673175
-0.13582431999754785
-0.12262477417567401
-0.09653968370040084
-0.1787805217907357
-0.15215728054179903
-0.1246358803549062
-0.07137070335469237
-0.15644831118853555
-0.09297148483612722
-0.07037863666186837
-0.11749968211384058
-0.0692961623692357
-0.09431518410215989
-0.05794602064799587
-0.1397792668573494
-0.11947171705060806
-0.12561460880271322
-0.09438922083634166
-0.09082568056487433
-0.15603086128658458
-0.1212455611074222
-0.031229185784158047
-0.13937312023475842
-0.06856461138125323
-0.08852874789661924
-0.10061567995649857
-0.07834519917045936
-0.09467650706064702
-0.11300436015596467
-0.04024913456913357
-0.0701747477105144
-0.0867040915706989
-0.037380276414921594
</DataArray>
<DataArray type="Float64" Name="v" Format="ascii">
0
0
0
0
0
-5.618418638274294E-4
0
0
-0.002425613103066017
0
0
-0.002162481835145822
0
0
-0.0022388649799602043
0
0
-0.001973347740220528
0
0
-0.0024967056543721846
0
0
-0.0021999582481859463
0
0
-0.0033370456780977254
0
0
-0.005921726954966393
0
0
0
0
0
0
0
0
0
0
0
0
0
0
0
0
0
0
0
0
0
0
0
0
0
0
0
0
0
0
0
0.004470216875821429
0
0
-0.0034669071332343797
0.021751624384130423
0
-0.001542978097840813
0.022310954657366114
0
-0.0014941385504054112
-0.022836935202457446
0
0.006426839764295728
0
-9.604597730168434E-4
-0.020826056902304043
0
-6.43960510296834E-4
-0.0013657194612282583
-0.05168081909398556
0
-0.001083734152820677
-0.014623700903578446
0
-0.0015866632039678796
-0.041133268290236565
0
0
-0.0017406044844921096
0
-0.003980407540122601
0
0
0.015739210571192926
0
0
0.013639813924952187
0
0
-0.010233230367596853
0
0
-0.005493262555316584
0
0
-0.005846873669253396
0
0
-0.019332478742635998
0
0
-0.008908777133686365
0
0
0
0
0
0.01920426425834276
0
-0.016659642125214872
0
-0.0033239941904841205
0.035256857099364
-0.01508121897900648
0
-0.0010797136848573641
0.007402158422600059
0.004269716483378479
0
-3.969530009246504E-4
-0.013334908954024489
-0.018596389943037764
0
-0.020431023459364376
0
0.0026825212913694145
-2.700003615581566E-4
-0.017353582610936003
0
-0.04076745770024968
-6.795442632610674E-4
-4.1011793465977963E-4
-0.07170903631267937
-0.03482615095614364
0
1.4956485336543908E-4
-0.006279924595250304
0.015833233493234195
0
-0.0012635424530306803
-0.013159200941387778
0
0
-1.323311955391509E-4
0
0.00532434980665791
0
-0.010827622068878821
0
0.014860614968588872
0
-0.008208194933700322
0
0.03408790590323485
0
-0.0018631271252394492
0
0.020014612221742653
0
-0.008464342359660483
0
-0.017138945670743935
0
0.0030796619189811807
0
7.535397007397967E-4
0
0.008622180569325096
0
0.002446951111933521
0
-0.04761397134151691
0
0
-0.015233319528238082
0
0
0
0
-0.0194520765122939
0
-0.010252158112959127
0
-0.003426504127858316
0.013930184123603745
0.011743597585361124
0
-8.724549447477052E-4
0.010078300096965746
0.006999013334549904
0
-5.6681682590669766E-5
-0.016325655570168796
0.005422992229028977
0
-0.020171498578706374
0
-0.051030941491011804
-2.0129700258384248E-4
-0.008796504723458944
0
-0.04774766473874251
8.395958024508481E-5
-3.012623851492411E-4
-0.048525772066245
-0.0066831825440263224
0
-5.255862049315601E-4
0.004113019202300227
0
0.0019383915884336903
-7.387606595589872E-4
0.002986238611047998
0
0
1.427617821616849E-4
0
0.010727260741598486
0
0.004349075017626343
0
0.0047072502522165875
0
-0.03410569834062638
0
0.01653135740060507
0
0.001098820685631442
0
0.045853002880774645
0
0.021864338776978007
0
-0.023775432155235653
0
0.024320033422780152
0
-3.1424399850245815E-4
0
0.004793386373950287
0
0
-0.026540692228867832
-0.07150456219568906
0
0
-0.06973713526130453
0
0
0
0
-0.010111318570031592
0
0.031458268410614935
0
-0.003903972503589317
-0.034397612554229386
0.007843751835725303
0
-0.0011865395248381002
0.00534711112225801
-0.011565598893760652
0
5.421996848091628E-7
0.037675200388301085
-0.003957827145510933
0
-0.015775566324706652
0
-0.012895035438063565
-2.807209096598088E-4
-0.028527252244187323
0
-0.017608523768496268
-4.745069673496271E-4
-4.444398698559612E-4
-0.012819766763709323
0
-0.03496468102767946
-5.815277637052907E-4
0.040140601094433376
0
1.7453656818295106E-4
-6.767123910560992E-4
-0.0172114932834667
0
0
-1.795248066851797E-5
0
0.003208456930359085
0
0.012170374103265484
0
0.005998326807782293
0
-0.010521871203843923
0
0.010610981251143512
0
-0.014281618446021443
0
-0.0015846360680220604
0
0.02172909263249662
0
-0.020382540800445718
0
0.03727651640019348
0
0
-0.029741247014573008
0.004957878290124714
0
0
-0.02985129391304205
-0.04520007168451889
0
0
-0.04337098590575927
0
0
0
0
-0.034458541776139946
0
0.027961827461084814
0
-0.003460776351777627
-0.006697062018616983
0.014036294416277332
0
-0.0014440494602955183
0.014719223584213645
-0.016338987203792274
0
-2.1783802994849663E-4
0.010501327340940052
0.03396061627051795
0
0.011063960146136033
0
0.03867719079545892
1.0266871380055512E-5
0
-0.02941360727654437
0.016288930713004805
-6.844102800449239E-4
2.612583863987349E-5
0.006361831056326094
0
-0.002187596237088278
-3.487955737159741E-5
-0.00849500675823353
0
0.018332774730489314
-9.608576757364102E-4
0.0019451481016580163
0
0
4.226185429312644E-4
0
-0.012212196972248955
0
0.002193244927721334
0
-0.021050424109576027
0
-1.1890457135269126E-4
0
-0.019244538626793043
0
0.023900506313918265
0
0.002683082020047418
0
-0.014441797812238128
0
0
-0.028857826285577277
-0.020354069386673765
0
0
-0.028445922109024965
0.02415556091914127
0
0
-0.015755120403038173
-0.02658647428888761
0
0
-0.021077248449383187
0
0
0
0
-0.022280660394647215
0
0.00785977415530604
0
-0.0039115767309423075
0.029431084832063584
-0.028836366376738438
0
-0.0017363397180810804
-0.025800709319677716
0.02030485209516343
0
-4.6791376993776413E-4
-0.017646388884400347
0.029822291854811073
0
0
-1.6347473828048356E-5
0.01248687841974596
-4.036795667591159E-4
0
-0.02176956954633634
0.007599961198066198
-1.6610909302062246E-4
1.3832396024969368E-4
-0.014313463399149224
0
-0.03610626464803889
-1.7364758817637382E-4
-0.013108537375485901
0
-0.012023470198481023
-7.561748818297518E-4
-0.007720731656201805
0
0
-5.559045400496098E-5
0
-0.008488050766142811
0
-0.0021877880007128824
0
-0.0065109775207584375
0
0.005533868352822561
0
0.00706008082785355
0
0.03806010667426007
0
0
0.031647700914115166
0.011859490321484865
0
0
0.0013480724797239332
-0.03641047240863681
0
0
0.011473241058837742
-0.006068223700304643
0
0
1.396861222404223E-4
0.001583116050668129
0
0
-0.007521211065155467
0
0
0
0
-0.045261792524938005
0
0.004083069509248443
0
-0.005218405784121221
0.0030664787256199626
-0.01849992794211615
0
-0.0014585939441060047
-0.016069634014707696
-0.01491198921218506
0
-0.0010483078503659043
-8.918297268599818E-4
0
0.039850077818256224
0
-0.006670170422206281
0.039248557097430935
-7.130272982923663E-4
0
-0.005218795927562968
0.02434747475030086
-4.2488025040351545E-4
-0.0010259155550690715
-0.06168840835721253
0
-0.04158543107228138
-7.900215417436599E-4
-0.03103041235996962
0
-0.004067598582241968
-0.0013717290878379111
-0.002216511649708907
0
0
3.3321482310372247E-4
0
4.635326711372641E-4
0
0.004776211453922874
0
-0.014525695729111705
0
0.01872146353613659
0
0
-0.00843785466078135
0.02273783207652735
0
0
0.018734882913966137
0.009762165588171647
0
0
-0.01954080327909212
-0.002307311126871133
0
0
0.017746159216870745
-0.011336224917437417
0
0
-0.013298556783951332
0.011276981348750792
0
0
0.015201124747430296
0
0
0
0
-0.05636939114468675
0
0.010468436867563937
0
-0.00839272900604114
-0.028515879801616417
-0.016296423346892425
0
-0.0039163080626132265
-0.012062929542792053
0
-0.016724943166401038
-0.0022343891083278357
0.008418500025204287
0
0.011662045234886542
0
0.02089124742014065
0.017286902540565644
-0.0020672562074740075
0
-0.009123560381963767
0.00994477898138274
-0.0024176929321976597
-0.0023023822961711
-0.019041518291017415
0
0.014064836980610765
-0.0026530849387902057
0.004855757559949604
0
-0.013497734912162883
-0.0022143654998096423
-0.014012715633715917
0
0
0.0011922818111956084
0
0.0216662553450031
0
0.005738864639896284
0
0
0.017517344110241844
3.177952978375253E-4
0
0
0.006651405604995841
-0.011275435700977214
0
0
-0.008429893987488371
0.02440391194015194
0
0
-0.013063712509635596
-6.868390274021794E-4
0
0
0.0026534935623147692
-0.01370232208680685
0
0
-0.001616749339471548
0.031150528419882185
0
0
-0.026839525341177613
0
0
0
0
-0.07891474960354049
0
-0.015541187835781121
0
0
-0.025430823148445067
0
-0.0017718439312127343
0
-0.028416958234239325
0
-0.02418122632537827
0
2.1777326806430618E-4
0
0.017276723956827514
0
0.05496039057951854
0.013190063798275831
0
0
0.023378471736827732
0.01271555373410188
0
0
-0.00974009678442791
0
0.031181063684383187
0
0.01702993825314075
0
-0.008288224504007681
0
-0.013417269116677545
0
0
0
0
0
-0.01039514102846517
-0.0076015016189820124
0
0
0.029954940245940403
-0.010422245329065492
0
0
0.030642165993874
-0.019639437249312067
0
0
-0.005159119733488606
-0.0056247687117898645
0
0
-0.01611145445736635
-0.02621838963314448
0
0
-0.028753312345436103
-0.03392504700887511
0
0
0.009897780453914538
0.00888426072957532
0
0
-0.01946862956081125
0
0
0
0
0
0
0.0010590143193585854
0
-0.006623637622931724
0
-0.012639636501036394
0
-0.020600582242301782
0
-0.022123672155126353
0
-0.029245210505864594
0
0.014204853768055808
0
0.02509310553514332
0
0.02132389157210851
0
0.03524071529334341
0
-0.0058211494870202265
0
-0.021556854837965597
0
0.006629002881855647
0
0.004812142313362754
0
0.0024947388316660583
0
0
0
0
-0.011309000243088334
0
0
0.03465138068177457
0
0.012504546381294388
0
0.012624280986892574
0
0.018524310486948428
0
-0.007931787850500692
0
-0.007044936035904763
0
-0.016815668652394696
0
0.001298550014671492
0
0.01172998364268688
0
0.014011472165746114
0
-0.004941552271891043
0
0.03308398313806616
0
0
0
0
0
-0.009150596422110767
0
-0.016526189899493577
0
-0.01562282576596158
0
-0.0020104685828576407
0
-0.0014761324311171377
0
0.008571044610011654
0
0.0015425040201238543
0
0.007669217674411506
0
-0.015567540284029513
0
0.021246372396287686
0
-0.0037003092026130177
0
0.007659661340232522
0
8.974745060033642E-4
0
0
0
0
-0.001914998558276773
0
0
-0.003394872592821257
0
0.00438603363105708
0
0.0221681288019651
0
-0.022539722517580865
0
-0.044361979374412656
0
0.01625099607361613
0
-0.005196312153076228
0
0.011989591750849718
0
0.011325061864190298
0
-0.002265228932061542
0
0
0
0
0
0.005710195690120882
0
0.0014247046062193542
0
-7.888560079369172E-4
0
0.0026253729127282844
0
0.002671160909890655
0
0.0030597328883067982
0
0.007567832371946655
0
0.02958722187196657
0
0.04110544400293001
0
0.02602955717854793
0
0.03244250498495304
0
0
0
0
-0.013718457734366564
0
0
0.03152462625385833
0
0.021287867156806903
0
0.04477575852353611
0
0.0028001066245722777
0
-0.005121828523459648
0
-0.0011625230193173625
0
-0.015465986903961395
0
-0.005452281963183327
0
0
0
0
0
0.012746002222055625
0
0.01824180165146054
0
-0.006980424276032941
0
0.03401752042426553
0
-0.006964152120459152
0
0.0016127564564353677
0
0.00315666869247618
0
0.00428599874601418
0
0.00219984741742564
0
0
0
0
0.013895725847972879
0
0
0.019796428047168125
0
0.005349627529146906
0
0.022139625385427672
0
-0.025527564017217494
0
-0.01677763586900555
0
0.00957497385962217
0
0
0
0
0
-3.203434360280633E-4
0
9.632081040999127E-4
0
0.001985603052731468
0
-0.0337027053495973
0
-0.0022842004217795285
0
-0.02034481963486001
0
2.7106342545011957E-4
0
0
0
0
0.030091645443315957
0
0
-0.0024283805177318925
0
-0.024164516380190865
0
0.0030193579668308323
0
0.003543207825876924
0
0
0
0
0
0.012253748505913929
0
-0.027279540837467562
0
-0.013963915651119206
0
0.01300332703899932
0
0.02132524669471703
0
0
0
0
0.021014030122983293
0
0
0.0076845534649729015
0
-0.005563721243979077
0
0
0
0
0
-0.02575262998365734
0
0.016742440721494892
0
-0.010594155891698513
0
0
0
0
0.014822017328881493
0
0
0
0
0
0
-0.023778857265051915
0
0
0
0
0
0
0
0
0
0
0
-0.008072656257264535
0.013373499010437344
-0.023703583109113472
-0.03842366727399202
-0.016679341904396554
0.009408580224686299
-0.011506420017721236
0.03198622971013846
0.04533728217934741
-4.829203125726083E-6
-7.443247707360772E-4
5.286793497629396E-4
-0.03290894035604507
0.035779869763143284
-0.00865484649074505
0.013906303966924197
-0.00820227305232272
-0.012716802234580714
0.008504307366134221
-0.05347229261975914
-0.037535262631415295
-0.019559336276448725
-0.04492175520229813
-0.029956470624285664
-0.015644950051529934
-0.004489244716460005
0.051785287552819755
0.01403446538445404
0.031101436232714625
-0.010658924019374592
0.029796275572753956
-0.005748657895215916
0.02897512782064734
-0.016440266165595404
-0.016809906605465334
0.025849668744260826
-0.009380127441701662
0.018789353164361214