<?xml version="1.0" encoding="UTF-8"?>
<VTKFile type="UnstructuredGrid" version="0.1" byte_order="LittleEndian">
<UnstructuredGrid>
<Piece NumberOfPoints="1331" NumberOfCells="6000">
<PointData>
<DataArray type="Float64" Name="u" Format="ascii">
0
0
0
0
0
0.6289739771304427
0
0
0.7629431314558718
0
0
0.7864192569460489
0
0
0.7895524289663057
0
0
0.7905356461665242
0
0
0.7906821082093209
0
0
0.7900997637177377
0
0
0.7810872546989635
0
0
0.6549385601317006
0
0
0
0
0
0
0
0
0
0
0
0
0
0
0
0
0
0
0
0
0
0
0
0
0
0
0
0
0
0
0
-0.23074860549328582
0
0
0.773553484784438
0.09872051731966679
0
0.9293574236621182
0.22178109012840552
0
0.9559231959822442
0.27336813388892794
0
0.2978012255370465
0
0.9601637326640747
0.3132513263420416
0
0.9609161438754138
0.9607902219762389
0.2207500903731194
0
0.9578403439224333
0.07860250188076895
0
0.9342069547971695
-0.04976559305098179
0
0
0.8010335799258806
0
-0.12993742360765517
0
0
-0.054220062821955635
0
0
-0.040084659174697286
0
0
0.019248279860034898
0
0
-0.008684019415594093
0
0
-0.003040990661514827
0
0
-0.0068736697162542415
0
0
-0.005821526643433913
0
0
0
0
0
-0.18230797830892606
0
-0.11200128968492824
0
0.8011644324183466
0.11645961714616367
-0.05245420287894697
0
0.9604688575369983
0.30765862891013634
-0.027693158995754905
0
0.9878843897579171
0.39159167639004194
-0.009876169275343329
0
-0.028786864018311025
0
0.4228683765642878
0.9921346207831389
-0.06324261817277003
0
0.41880497842882386
0.9926555317521591
0.9918611563125611
0.2809619853747805
-0.07882980097766022
0
0.9888050245487304
0.1465456411949608
-0.06408961088284458
0
0.9638414852690537
-0.0030238754232353453
0
0
0.8136594041801039
0
-0.09705412237524529
0
-0.11334004581996353
0
2.073218560584729E-4
0
-0.08313849742385605
0
-0.007382642297954266
0
-0.022739235348384842
0
-0.021173192002644944
0
-0.00350909905596926
0
-0.0060270640297791405
0
-0.03415233981223272
0
-0.007050260201377574
0
-0.02091327416811467
0
0.003978774298699055
0
-0.026288791095784633
0
0
-0.0072304057228804374
0
0
0
0
-0.18505041973888037
0
-0.12303558637630714
0
0.8060658845522805
0.15890056366109417
-0.1117937692389162
0
0.9655836588581139
0.28141478002169834
-0.13937331002461437
0
0.9932759827212153
0.43115186605922423
-0.15050546312435475
0
-0.16463029382789743
0
0.41742197353367483
0.9974811046941879
-0.1263410674719664
0
0.4066336898652967
0.9984379363676225
0.9978892121977103
0.315431227220862
-0.050638653820312074
0
0.9935972363461526
0.1827893273271103
0
-0.05649563911674751
0.9686217215202125
-0.04056415072511143
0
0
0.8143739485641142
0
-0.03788037981555636
0
-0.15668531424598842
0
-0.02688987739925071
0
-0.10879351909178638
0
-0.03504894501839063
0
-0.07861065527439753
0
-0.01719143268888856
0
-0.07104708775199396
0
-0.0068328807373618265
0
-0.034587366689244815
0
-0.003149528490985805
0
-0.024692920028569442
0
0
-0.0027700881921601164
0.002881561936552168
0
0
0.016784686962739496
0
0
0
0
-0.1804819957584076
0
-0.07009204092800209
0
0.8069943686470005
0.15322241791356783
-0.10400514467846557
0
0.966733387729017
0.33126267352046396
-0.11990029550603594
0
0.9941870538294383
0.4152180295479296
-0.13666582080857378
0
-0.0870496955079325
0
0.4558115246215291
0.9984627241353276
-0.024156009917527203
0
0.3868576455554322
0.9994084326602094
0.998798860601798
0.29601587308226995
0
-0.03823223967790446
0.9946783335684191
0.20754829575252656
0
-0.06983440610699636
0.9686398570060354
-0.013130001511627685
0
0
0.814417469896514
0
-0.04560596892309179
0
-0.11239058498553689
0
-0.045689449063475156
0
-0.0975046772286368
0
-0.02948583579622141
0
-0.08102644120560855
0
-0.014837056182622696
0
-0.04036218079350106
0
-0.007800056081238506
0
-0.02143847796801396
0
0
0.02354830997403419
0.005027521337843194
0
0
-0.03863525935590827
0.029541324358442252
0
0
0.00898503867744243
0
0
0
0
-0.18331953188161573
0
-0.05760238480672051
0
0.8064298377552982
0.17105040948190056
-0.04686701373672166
0
0.9669717413420504
0.31605265475267763
-0.05515454168002645
0
0.9933642874815652
0.43985679184781357
-0.045200549781341796
0
-0.019489013037171602
0
0.4106765619583222
0.9976898782912086
0
-0.05182192230942525
0.3659178022862972
0.9986146927103708
0.9978215181261375
0.28655653304550976
0
-0.025460597815464794
0.9934290018235182
0.14121256564744314
0
-0.06483517787090533
0.9677860238137975
-0.027591648393595302
0
0
0.8131575481727781
0
-0.0566865199411959
0
-0.13334936476030282
0
-0.014766106541145846
0
-0.09168602274182254
0
-0.033653359188990296
0
-0.07242889576708204
0
-0.002104170960676215
0
-0.03903077686723985
0
0
0.027471870600591388
-0.029176184358313633
0
0
-0.020939136267295586
-0.018350904659085274
0
0
-0.03134313764466767
-0.04206325996660107
0
0
-0.002332403351508312
0
0
0
0
-0.18005718284403516
0
-0.04377135445553834
0
0.8059651674900793
0.17138306054274868
-0.05114817632399419
0
0.9625236777553953
0.3306249057353368
-0.032011612699423125
0
0.988263889784669
0.4125894568472621
-0.013260527748697327
0
0
-0.03033304430738078
0.4275879064363632
0.9925363805357107
0
-0.038354633657970344
0.335344438423859
0.9923085666829868
0.9918709647424729
0.2936616626381916
0
1.1866008652488028E-4
0.988213011164296
0.16433475439400877
0
-0.06329510833463138
0.9619374568647542
-0.013848467839860228
0
0
0.8089114088521575
0
-0.05758424191438726
0
-0.10945334875344952
0
-0.019291959254695845
0
-0.06434967965615711
0
-0.006686305478460611
0
-0.058923923978443794
0
0
0.029700798970993342
-0.01806955348541184
0
0
-0.012814716286733122
-0.02704291232360008
0
0
-0.07668013834401853
-0.04770642251476162
0
0
-0.015990589737778223
-0.016889918585907552
0
0
0.0028078174256883064
0
0
0
0
-0.17241632640138518
0
-0.04762565983910592
0
0.7938337035341724
0.17376030843220314
-0.018272442664102943
0
0.9325573039592867
0.3218924181233502
-0.00921607722971751
0
0.9576997857920376
0.40540248552440855
0
-0.014773982451627846
0
-0.0014649429956145382
0.4114645131729127
0.9613414583744184
0
-0.010530968042263637
0.37941425337604273
0.9612115114078291
0.960523959821551
0.303797494329588
0
-0.015744463975520002
0.9564297329219595
0.13366197735566532
0
-0.09123023893701637
0.9306327335889931
-0.03749625346047766
0
0
0.7811218742269689
0
-0.018239053508701086
0
-0.11627697726482018
0
-0.003992461609211624
0
-0.09356390681017972
0
0
0.019481664864508644
-0.0356403236788514
0
0
-0.020658084465506103
-0.033799682411178485
0
0
-0.10052186631016274
-0.052348306151291796
0
0
-0.050895593010029584
-0.03667663240600069
0
0
-0.007086673530726219
0.0031507498694020434
0
0
-0.015229482220318004
0
0
0
0
-0.20214824843284163
0
-0.031196914058762116
0
0.6474062019378416
0.11668631125370675
-0.02413688699939827
0
0.7807312211332044
0.2858103748987497
0
-0.004679227094165488
0.7908474033779457
0.3400657757059368
0
-0.019686132304740592
0
-0.05365095004219847
0.3555132271324722
0.7906480695341159
0
-0.03137074000841866
0.35127529238354166
0.7907884314443425
0.7901189412685038
0.2939474450573254
0
-0.040915958217500575
0.7857344525797118
0.15219001303349355
0
-0.10429270363151083
0.7645022597294348
-0.042668792663286464
0
0
0.6359039058173519
0
0.0027946941981797074
0
-0.13184392893973007
0
0
0.03383497976891204
-0.06435689391547728
0
0
-0.030068309100204225
-0.03474675176898546
0
0
-0.07795491063794426
-0.04775919571339226
0
0
-0.07688992591947953
-0.055050061446919825
0
0
-0.05321068709713212
-0.01837477487001604
0
0
-0.028714140612520162
0.0022636243195243784
0
0
0.002390014736919709
0
0
0
0
-0.22246244123881373
0
-0.023636037509551885
0
0
0.0766534716412819
0
-0.0068839833377540545
0
0.21395770077680618
0
-0.002642695447099192
0
0.2599838293517041
0
-0.024039323697300375
0
-0.026181000286924452
0.26989803278409413
0
0
-0.015486741404278323
0.2630459177460542
0
0
0.20612888041824542
0
-0.08136225291274174
0
0.11659564696894888
0
-0.08275884979950197
0
-0.028131668790385086
0
0
0
0
0
-0.0031822688102200094
-0.100777131576076
0
0
-0.053804301123753014
-0.04266103500962057
0
0
-0.07859860907437667
-0.02154531563450496
0
0
-0.07968293654635784
-0.0434276008950376
0
0
-0.04483284408569685
-0.018386482542259722
0
0
-0.044772643977971864
0.0028415766002777986
0
0
-0.021709961863571256
0.011953898842205359
0
0
0.01775946385932307
0
0
0
0
0
0
-0.014994482181688645
0
-0.07091971942818438
0
0.002653890273002545
0
-0.03431077664679442
0
-0.02898482915486145
0
0.0016290873516142574
0
-0.0060312354398486525
0
-0.006069628288239581
0
-0.014769930839870327
0
-0.09372913606938732
0
-0.04249433806083381
0
-0.03451758586546095
0
-0.08652500265557594
0
-0.08175228606679609
0
-0.06969908592104661
0
0
0
0
-0.014533501801001008
0
0
-0.05122866257588818
0
-0.04044879837811485
0
-0.06634134320361708
0
-0.058432324346520424
0
-0.04434052040776836
0
-0.11719168231327583
0
-0.04522676427661934
0
-0.012587581891127525
0
-0.035956936352466655
0
-0.014623901014328422
0
-0.0010359416949297451
0
0.01842697892664151
0
0
0
0
0
-2.1206984952338987E-4
0
-0.06144397992309553
0
0.015245884276814668
0
-0.07916220361087388
0
0.006422887578988142
0
-0.08184285590940397
0
-0.037809022582226175
0
-0.03402018432280784
0
-0.10576579875521325
0
-0.05983408535626838
0
-0.10131681354650142
0
-0.126536732345786
0
-0.07400492712885944
0
0
0
0
-0.035024834467486714
0
0
-0.03536233114300846
0
-0.07629466495583513
0
-0.03507004236891032
0
-0.1265407543841627
0
-0.08100283210255625
0
-0.05764087440337421
0
-0.04438471104093092
0
-0.04912592370832992
0
-0.012000378367429267
0
-0.012206258623022596
0
0
0
0
0
-0.022232367394587435
0
-0.0677153449651098
0
0.033773325742163955
0
-0.09351102212285943
0
-0.02044411505366806
0
-0.10948558513760233
0
-0.015928840514940437
0
-0.017077338869445683
0
-0.0986488444819646
0
-0.011653256169590348
0
-0.06152644535537403
0
0
0
0
-0.050449214145634885
0
0
-0.01569312572294845
0
-0.06151497867501867
0
-0.05300576938949713
0
-0.03239417708873523
0
-0.0411218369753775
0
-0.08544652150740918
0
-0.02632909531291695
0
-0.039048633821228466
0
0
0
0
0
-0.0021860396407096454
0
-0.10319640571823835
0
-0.014026248223602286
0
-0.10103114968543063
0
-0.022772334606112898
0
-0.06765813846193992
0
-0.01565233762125467
0
-0.00705711948500475
0
-0.03338246522129725
0
0
0
0
-0.013499569855520475
0
0
-0.05821291416052551
0
-0.07647075512953605
0
-0.05131150697290467
0
-0.06538580929922233
0
-0.034656297360935256
0
-0.0536432374451963
0
0
0
0
0
-0.006636600184593749
0
-0.08128816588257724
0
-0.04968423751557357
0
-0.058230673446842955
0
-0.031926268061526215
0
-0.029628347827266716
0
-0.03132949188402267
0
0
0
0
-0.018684596273640223
0
0
-0.014200663983449843
0
-0.041430485541515065
0
0.016782062661196088
0
-0.03969674861689897
0
0
0
0
0
-0.008671519899755778
0
-0.038952495405592084
0
0.005825960623179203
0
-0.04119386023837358
0
-0.005637693664212729
0
0
0
0
-0.007299354771512956
0
0
0.01985127140721681
0
-0.03261392966237867
0
0
0
0
0
-0.015616102497765122
0
-0.03223292750552554
0
-0.024316033307013377
0
0
0
0
0.005042539667878486
0
0
0
0
0
0
-0.010887583150538059
0
0
0
0
0
0
0
0
0
0
0
-0.08465135689828719
-0.05663249207570888
-0.020136239694557675
0.009475208075221146
0.03683649895855703
-0.004901142506569037
-0.07162840606414676
-0.11314132680248597
-0.05439017554763784
-0.017695526872496536
-0.05339566676578488
-0.06857927428332015
-4.637060068127601E-4
-0.1181730784031753
-0.15498576290115243
-0.062043725581940594
-0.16909413668337958
-0.011593459300133745
-0.17182464287783542
0.08047848646327549
-0.1685705163544754
-0.14248977919775288
0.06788552960372278
-0.12238963666475831
0.00807118608781763
-0.03388039510181573
-0.09774156860840948
-0.18013428632864514
-0.04516534044861628
-0.14493094997109426
-0.051975379096906714
-0.07974809556552186
-0.038269865674989106
-0.0927513279334695
-0.011172212353116884
-0.035052037237044385
-0.05287712137258976
-0.10885337175929272
-0.18332865268239906
-0.16824608370765845
-0.04152779943059882
-0.16104832140389783
-0.17979182156162843
0.06438288112647995
-0.14657327098132314
-0.15458776256220344
0.08059945698892812
-0.12264189989048817
-0.10540548775583854
-0.11016230212427434
-0.08580953630290143
0.08007395357880819
-0.054255496216851745
0.027141739197114153
-0.01820569557961488
-0.10220261368272092
-0.18996061562277897
-0.17174083425427125
-0.07553216486413496
-0.1428501852886798
-0.15906436816050865
-0.027602743050984202
-0.09309007077576363
-0.12392420248249449
0.002850935744799671
-0.02903934822024345
-0.09152005579822271
-0.04282884557919021
-0.07107841698418932
-0.031714059405082866
-0.08439160945892671
-0.15510570167106327
-0.20301992422526646
-0.11964583435774002
-0.008748635299163364
-0.15320261252930226
-0.1917993150825694
-0.10282070103303907
0.05569552176365589
-0.15877017816333697
-0.17467449990817438
-0.07257024544177916
0.07413739244865086
-0.12237425506062051
-0.14594410715403097
-0.08032972798393588
-0.10009354559563793
-0.09314071876943109
0.03318494657993846
-0.051741056625745095
-0.0023151242060015236
-0.05895257975825443
-0.11650328555418958
-0.15884172703236207
-0.1921131387887822
-0.14949669569336296
-0.0648311547970304
-0.12294255106342133
-0.20949772252014368
-0.16750300649839567
-0.01365472663589218
-0.0629359567377863
-0.16934108003587367
-0.1330573172838988
-0.07488003145000466
-0.09584562671316423
-0.12685968658449512
-0.08354567135384385
-0.031061056918147856
-0.036046751923229474
-0.11831896548305154
-0.14821315815040703
-0.2051409388507928
-0.18853508175641095
-0.14089131872002594
-0.04597208102493153
-0.1789943677694583
-0.23411022661742917
-0.16598075377137408
-0.07352693060304721
-0.0013406352241988365
-0.18065529729045438
-0.2207248496888499
-0.11230024272282609
-0.056642968150030455
0.03199815366388726
-0.12685661231620451
-0.168793970562512
-0.058321047324623156
-0.09789589644126122
-0.08232539797671796
-0.0028077074101669898
-0.08474750879386918
-0.05714277935928528
-0.1205161138546167
-0.06760673869397472
-0.1522005298618745
-0.1999720052901098
-0.20683985783360403
-0.12998926684656897
-0.029757858281706656
-0.11979693066807422
-0.18970879402843988
-0.20277821565022777
-0.12179015141653725
-0.0963199449653725
-0.13205657079095814
-0.1769067551306337
-0.08342731774544987
-0.12339433901899459
-0.12017822215563989
-0.0783271597602191
-0.0580353588779454
-0.06642940707476458
-0.02056809185896302
-0.08699496382103787
-0.17386116435939047
-0.19815605688970003
-0.21526891160557915
-0.1316065184930829
-0.048990364978563655
-0.032973195469127504
-0.17834305485882182
-0.2057768498865101
-0.1859168643398398
-0.08462496409667454
-0.0022467487217136934
-0.036731311013886374
-0.1541681670635905
-0.19777381092212779
-0.16705922021452316
-0.03247982763927492
-0.012126564018112233
-0.16985374779806148
-0.16354403574603185
-0.128357180313292
-0.09016705318315582
-0.18706290191073985
0.008387993406358159
-0.1137807257208077
-0.06977491027036936
-0.1249810025332699
-0.02879347663486943
-0.150668924426145
-0.17247370025772388
-0.2302110048691264
-0.1495343626472567
-0.12427787313906347
-0.08580425090577216
-0.1486927029348909
-0.2359884801916158
-0.13039374304773702
-0.14291266238937791
-0.13803697880085555
-0.1594856445857902
-0.16694531002899768
-0.09742456159560069
-0.10635952901618463
-0.10012330346803006
-0.12714141583281668
-0.0664770020487589
-0.042682031169756225
-0.026545338784783854
-0.09801469448037764
-0.12479615441717186
-0.23388038375427614
-0.22848241874955824
-0.14461182535902187
-0.09021814312880932
-0.011335649742302618
-0.024138293365989754
-0.1705228950502287
-0.24962584735284366
-0.21188958807438965
-0.10142462244106466
-0.058003914562113255
0.008193796327115725
-0.15218607256968353
-0.2508276648552848
-0.18034808357324203
-0.07444409122232738
0.03232158270020991
-0.1280928106567455
-0.2141608274278566
-0.10432570111007494
-0.10183151400375669
-0.17933115756841153
0.021379372694821316
-0.16934634194264928
-0.04338361217369214
-0.09470844603236063
-0.0506459749113232
-0.16421123851384992
-0.2323084813130232
-0.2178560843923517
-0.240211142438065
-0.10580589435175412
-0.12862477261933905
-0.17867557818229873
-0.2455823002760497
-0.17407206768009875
-0.15129364030659662
-0.14127573424563786
-0.16694534979215228
-0.1462757294202106
-0.1618373310073186
-0.09109623234271753
-0.09265465823704773
-0.09874939519670355
-0.08254077553184103
-0.04376426595031532
0.005259716801647329
-0.16426102731808792
-0.23164614835150374
-0.2523990983271042
-0.19923881310363675
-0.1224728836585675
-0.03540164911230211
-0.12356450126443043
-0.20474609589198633
-0.2662408668518251
-0.14613680566756362
-0.06638305276631302
-0.09826127361457952
-0.17334060472201618
-0.21783204578909984
-0.07460673110482974
-0.09016148151705548
-0.1760372548679382
-0.09640546329284433
-0.16122516964843756
-0.10755218932397774
-0.1528138594724742
-0.12205091317734225
-0.15764125411983446
-0.2325578852328872
-0.24459243020825058
-0.1857532780009489
-0.13367046872182223
-0.2170044776307568
-0.17944164659680284
-0.20553448013868347
-0.10881391661228566
-0.13231681969111483
-0.12213084047661123
-0.11688075577459638
-0.08821331744518736
-0.05446298385169256
-0.1717452171424546
-0.23603552918049867
-0.23335046222005137
-0.09970626886836371
-0.024879941837222485
-0.143444221674777
-0.17739066392348593
-0.183965039006773
-0.04816797573655682
-0.15936284184089453
-0.15929268397843147
-0.06518461518056314
-0.15649262850578163
-0.062399329115923476
-0.1127567342313213
-0.0972050404958857
-0.15249123513456297
-0.16256907438157364
-0.20326575938162336
-0.08314693804130076
-0.12914270775750183
-0.1642665453131644
-0.09258710110162642
-0.110074513006845
-0.07045420700213818
-0.15832753505165711
-0.1924150844612497
-0.12233954115497571
-0.046939611161283416
-0.11293319171187828
-0.14635229477304443
-0.06771870801212626
-0.08509634359636781
-0.08573227236845365
-0.04989505410484899
-0.03204368181475245
-0.15175497579764705
-0.12688904521188246
-0.1236338942714852
-0.13988591329086428
-0.09498242769788519
-0.12728139702699023
-0.14858128324914424
-0.012872737077956962
-0.11004434779142774
-0.0814198326646869
-0.056404634157377474
-0.08663223967109769
-0.18416150399655748
-0.07190590816776178
-0.1586292216449219
-0.056546356405450325
-0.11257851629085795
-0.09481620538575969
-0.044577313927109515
</DataArray>
<DataArray type="Float64" Name="v" Format="ascii">
0
0
0
0
0
-1.5573161790739218E-4
0
0
-0.0022011430328031972
0
0
-0.0024289554582984543
0
0
-0.0018323224986442007
0
0
-0.00255001610009761
0
0
-0.002266827128796101
0
0
-0.0029319147787817096
0
0
-0.0030192190208867746
0
0
-0.00588169455713698
0
0
0
0
0
0
0
0
0
0
0
0
0
0
0
0
0
0
0
0
0
0
0
0
0
0
0
0
0
0
0
-0.03981275901483116
0
0
-0.0033784215358783226
0.005069651411835217
0
-0.0015666867439629942
-0.02269246341642717
0
-7.675348609059485E-4
-0.03365957987581488
0
0.02414875896936904
0
-9.108345019503973E-4
0.019177008119449727
0
-7.16785463515136E-4
-8.58666350989884E-4
0.05487315754746864
0
-0.0012924730637632682
-0.040374721903108764
0
-0.001487876478368349
-0.019542958671666288
0
0
-0.0010655490927826237
0
-0.021380737523937373
0
0
0.04719625791396124
0
0
0.018534806547067014
0
0
0.02235380940635678
0
0
-0.009098575572194574
0
0
-5.086189432598713E-4
0
0
0.019097063958272754
0
0
0.008940585032446357
0
0
0
0
0
-0.024095204825642744
0
-0.006780650796253792
0
-0.003759058256191499
0.010524070097913644
0.0315421998493333
0
-0.0012815991940135134
0.003792599319611576
0.011799347860298013
0
-2.1661566086846921E-4
-0.0051778009452630456
-0.01272374110519364
0
0.0022573780608115264
0
0.054460223619220954
-2.792631630982035E-4
0.013445511522161774
0
0.04921637787183952
5.545733975245213E-5
-4.1214182923412444E-4
0.032294200754200454
-0.006278495441463697
0
-2.5675538356655856E-4
-0.018685013689033844
9.487248997402537E-4
0
-8.233006854901375E-4
0.009281882279220005
0
0
-4.086590172308815E-4
0
0.020822797401890688
0
0.0053407816641880814
0
0.022082040553091094
0
0.05421009650532174
0
0.02093227535226772
0
0.055427030767855906
0
0.01871449005156817
0
0.053057707553293504
0
-0.011773546864678623
0
0.041155677865355345
0
0.016468685100781696
0
0.020968003582224518
0
0.005767095255749655
0
-0.005454768583751007
0
0
0.011814278595054852
0
0
0
0
-0.05350991664357154
0
0.0042576108005166575
0
-0.003272117866010387
0.0012966402510300118
-0.02582457898205205
0
-8.949995813551504E-4
-0.029918432425138447
-0.03056800148012254
0
-5.598393615593415E-5
0.02017785692539276
-0.037328941467299724
0
-0.03468604856025614
0
0.04245273145647698
-5.486473387297568E-4
0.011915791179001323
0
0.05565086925140388
-1.0166772680844846E-4
-2.9011494146397374E-4
0.0050807498006016525
0.0368188109084534
0
1.2017202664493184E-4
0.004351801600816246
0
0.017520351422225782
-9.494630669114825E-4
0.010432144746267837
0
0
-1.9262201791779264E-4
0
0.025996030133185088
0
-0.01565838639850226
0
0.0031337590702752295
0
0.05359083023631403
0
0.028873905984592562
0
0.06857354242019291
0
-0.028365749975323273
0
0.041178248097554555
0
-0.008437426100286914
0
0.040100627128960224
0
-0.01941518494137218
0
0.041847391922123396
0
0
0.03531705027582143
-0.006888910246821531
0
0
0.016311246608905833
0
0
0
0
-0.03322126381754987
0
0.007534881117477635
0
-0.0031909380286467763
0.0015446756407013647
-0.008003442631380078
0
-0.0013291732799100996
-0.011396299363683948
-0.031061031380693976
0
-1.9447795132255768E-4
-0.024070242345411233
-0.0019282217512066168
0
0.01684882300309311
0
0.009656376120850326
-3.2278880921918094E-4
-0.01815830287571679
0
0.03243479774593208
-4.343228387191605E-5
-1.6882336478391292E-4
0.008139516272618138
0
0.045974593644319446
-6.900548530086034E-4
0.03457743347936403
0
0.021738872782066484
-5.853219011160451E-4
0.0011065994147571763
0
0
8.493110673697706E-6
0
-0.014535878624570934
0
-0.02856864538864368
0
0.009132737292106367
0
0.03675367595559639
0
0.0252695122385873
0
0.033114665137295766
0
-0.006849973769937945
0
-9.584472266402138E-4
0
0.006753683813966408
0
0.01995943249150373
0
0
-0.023163899644190536
0.09093770124600825
0
0
0.0264553088230869
0.003475054222670139
0
0
-0.02046049006790945
0
0
0
0
-0.03864774788621173
0
-0.00820583979038774
0
-0.0035513364958049847
0.021364185482779855
-0.003923086552876015
0
-0.0011930834395963775
-0.015361888012186983
-0.010606870726305314
0
-7.139610672680834E-4
-0.018959589921124623
-0.0038280593388811354
0
0.01490574411802638
0
-0.041503215954904145
-1.8319069419219173E-4
0
-0.026570796307121128
0.031321789639140236
1.2168095674783295E-4
-5.109519492609984E-5
0.03410000829527448
0
0.02261490510495777
-5.617005677753406E-4
0.005243626561240448
0
0.0294039413513747
-5.142640774903903E-4
-0.013824720272896772
0
0
-3.984527718099903E-5
0
0.006101271230550163
0
-0.02777368804524494
0
-0.0029088361704962397
0
-0.017544658308171996
0
-0.014823676665965404
0
0.0011018857659459353
0
-0.010246037647008098
0
-0.012836797198691555
0
0
0.026753912260300657
0.013131754428326778
0
0
0.01889914825687555
0.0648205214286872
0
0
-0.017960607973405828
-0.02152748370611969
0
0
-0.04099467144914501
0
0
0
0
-0.04840075711336244
0
0.004899359054502907
0
-0.003788258787524657
-0.015709629358266013
-0.0178132827645569
0
-0.0017119263104641185
-0.013487571726148116
-0.007771743645648282
0
-6.918729313180328E-4
-0.03586128504710707
-0.030771388411707904
0
0
-0.005662947202176554
-0.05461987902192605
-2.545609890413131E-4
0
-1.4815061787240745E-4
0.009919659091847834
-6.38078789197817E-4
-1.589171790058013E-4
0.07410944968405263
0
0.02336084665353815
-1.0056084126510594E-4
0.009914990162442823
0
0.0258673293806347
-8.92811640319768E-4
-0.014372874604269928
0
0
-7.77175127610083E-5
0
-0.03476354131120848
0
-0.030173864565239544
0
-0.01321746400707905
0
-0.030099848626492426
0
-0.016982407960769056
0
0.002060154609631576
0
0
-0.009764407441910953
1.729518423939457E-4
0
0
0.022563459026248775
0.03352357583267044
0
0
0.05579528331009958
0.024618081311959455
0
0
-0.01247433923536734
-0.018936400751941414
0
0
-0.031711175996169794
0
0
0
0
-0.043454349235528704
0
-0.05728425764242106
0
-0.004798911938242347
-0.02362456694887678
-0.017267078665364418
0
-0.0015050994899268916
-0.03881433055305528
0.01052263984985246
0
-9.315353801401705E-4
-0.03137030031604859
0
-0.004411657396352524
0
-0.023621608771343228
-0.02665499308823528
-5.732361368759225E-4
0
-0.029665400374443623
0.02560850269081998
-5.4658632557494E-4
-9.067102080768276E-4
0.0414768907299431
0
0.03069361464746378
-8.70197905857808E-4
0.03472682171676856
0
0.02530148466331443
-0.0016582955560319466
0.04651191584556866
0
0
4.15386041564692E-5
0
0.008647606095348731
0
-0.06422066493639035
0
-0.004728629939596927
0
-0.04711476076671715
0
0
-0.022071045002482966
-0.006398548388458463
0
0
-0.019678219545828365
0.024748231686097646
0
0
-0.018052717067425617
0.005998216401903356
0
0
0.01971680552083704
0.02276548443144448
0
0
-0.026025583611424305
0.028647920508664604
0
0
-0.03412159051624974
0
0
0
0
-0.0595194145410911
0
-0.012030922821008339
0
-0.008378927578802372
-0.08197456190420277
0.01990724571138923
0
-0.004151670740024629
-0.055736076234299124
0
-2.6359635935573616E-5
-0.0025068805543942687
-0.017075171268793946
0
-0.024751200003285723
0
-0.048256447507845725
-0.004211641873021559
-0.0026119816606140407
0
0.011849990608531735
0.007167264740892086
-0.0022052005342640233
-0.0027274218748169986
0.014576372235255148
0
-0.0037448012163936594
-0.002628445808670671
0.05635248174223991
0
0.033688504406514615
-0.002148131591303947
0.07061021597916578
0
0
0.0016601821560181423
0
-0.03401809136167947
0
-0.05751385735233009
0
0
-0.02369214047736888
-0.0840958207873035
0
0
-0.02101523644871522
0.001487121543430322
0
0
-0.010780180805790886
0.01174263992863781
0
0
5.58494768558059E-4
-0.03201430863442745
0
0
-0.0158512726213263
0.024011394812542983
0
0
-0.0067756000298600785
0.015019948384481124
0
0
-0.040634455260518676
0
0
0
0
-0.08751760369872247
0
0.010907971199870754
0
0
-0.03983866836900619
0
-0.008790156427569334
0
-0.054862056954686204
0
0.007251777778521041
0
-0.003131321834789439
0
-0.05452613998175515
0
-0.027064973215735196
-0.008395966017781255
0
0
0.0068474311622823214
-0.0077551454989887554
0
0
-0.029115475516298218
0
-0.05071349309746362
0
0.015073209627059775
0
0.030437928279849286
0
0.07219327310857794
0
0
0
0
0
-0.03449726681343054
-0.015919308546262164
0
0
-0.04555684667727091
-0.04731535584403843
0
0
-0.039766093421461646
0.008103970508623458
0
0
-0.0029427118782167972
0.016226855654048283
0
0
-0.011606420750841595
-0.01323264964490145
0
0
0.018915555725813996
0.017419161552434392
0
0
0.005850339649351748
-0.00640483108135297
0
0
-0.020622049838703412
0
0
0
0
0
0
-0.015187241210860352
0
-0.016009348704433875
0
0.014492226179608528
0
-0.01176222511720554
0
-0.01622208857768483
0
-0.040571509953315044
0
-0.06197722066078539
0
3.1539672101987197E-4
0
0.008217652117980813
0
0.009475790372324351
0
-0.012786120463523974
0
-3.791233556957538E-4
0
-0.033936617140533205
0
0.012102223844586221
0
0.05473260133353921
0
0
0
0
-0.030009154720793237
0
0
0.009401457628473777
0
-0.004400645681835695
0
-0.005626400794388895
0
-0.010030335612936675
0
0.007340893950433472
0
-0.020434531618811636
0
-0.013631828157789514
0
-0.007402875439213725
0
0.02201512043481391
0
0.02585315559426672
0
-0.0017291783652857854
0
-0.021592943664032246
0
0
0
0
0
-0.036353831397474855
0
-0.009039768186595435
0
-0.00970913516825627
0
0.010861218011435166
0
-0.04670391762795636
0
8.016944891589667E-4
0
-0.06317859631818211
0
-0.018518578524995517
0
0.004274938249420305
0
0.0035924495673407427
0
9.809776792638924E-4
0
0.012887716201090619
0
0.007786137072219583
0
0
0
0
0.0057474731039031
0
0
0.012235750610299571
0
-0.010419822389151316
0
-0.009792948586642154
0
-0.008123673715034576
0
0.011490111935589542
0
0.014132876931083541
0
0.006338959560046014
0
0.03530129986648401
0
8.46835924159097E-4
0
0.01683198611951114
0
0
0
0
0
-0.0210561289564658
0
0.008703241164536699
0
-0.012902896837904297
0
0.043634068289496
0
-0.08153520889574106
0
0.011711355878233054
0
-0.04354651486326189
0
0.005588683479832201
0
0.0039236265059842445
0
0.005678788848733921
0
-0.01400768061451759
0
0
0
0
0.013949741240368631
0
0
0.019813862076408447
0
0.03394583780351724
0
0.0058752718315692185
0
0.015738780407175065
0
-0.027250341169442357
0
-0.008015514784889646
0
0.02278617754939576
0
0.012483220555773562
0
0
0
0
0
0.0066694223761020015
0
0.04352189510770197
0
-0.034112258960669835
0
-6.577436833670407E-4
0
-0.03674578404981963
0
-1.940445533075685E-4
0
-0.04925934010857677
0
-0.01853364298174393
0
6.0953230293364474E-5
0
0
0
0
0.045926259555795955
0
0
0.019119496576601055
0
-0.013119718941130674
0
0.01126851324772287
0
0.016956015517032835
0
-0.02081431232804709
0
-0.046499513088934165
0
0
0
0
0
0.0036042618659550565
0
-0.03064917956189686
0
-0.007407291098343095
0
0.026153397712268763
0
-0.0032194417267424665
0
0.0025976829306408582
0
-0.017218254203870246
0
0
0
0
0.025079518864636774
0
0
0.03990496510401784
0
0.00262532163423688
0
-0.00797358368714343
0
-0.031576796619538085
0
0
0
0
0
-0.009143634679036805
0
0.029559515926157253
0
0.007832058876783963
0
0.01853898494086315
0
0.022192569994936014
0
0
0
0
0.008211481533417277
0
0
0.0060978629708934124
0
0.00728355921521276
0
0
0
0
0
-0.018981997820466886
0
0.02398136715204861
0
0.006717907590436268
0
0
0
0
0.007235963831421757
0
0
0
0
0
0
-0.006697657535813834
0
0
0
0
0
0
0
0
0
0
0
0.023220052316187623
0.003423507471819271
-0.008548107960056088
-0.02398109540524356
-0.008787071298557018
0.005342884854748802
0.015518740529075722
0.0365209811659275
0.04766488923297915
0.06138671412135643
0.031507637882025236
0.0075682821444740325
0.021115507467898684
0.014463270047525623
0.014933112084334404
-0.03854003739933388
-0.027120936555995682
0.0010431230710575559
-0.03944846745042471
0.023240897326927096
-0.03399172676714434
-0.024648503126997415
0.0030987459630174657
-0.031558964706266394
0.013895334238007212
0.020848880198620075
0.052210823162188585
0.05995335336591379
0.058113420254692245
0.09179146126722078
0.0331653081865817
0.09101052125426252
-0.009238499444923796
0.04185407846002909
-0.013645796794309167
0.0512403801702468
0.04110246720169528
0.001484647479095002