<?xml version="1.0" encoding="UTF-8"?>
<VTKFile type="UnstructuredGrid" version="0.1" byte_order="LittleEndian">
<UnstructuredGrid>
<Piece NumberOfPoints="1331" NumberOfCells="6000">
<PointData>
<DataArray type="Float64" Name="u" Format="ascii">
0
0
0
0
0
0.6296035668026946
0
0
0.7630272681158788
0
0
0.7860876241173719
0
0
0.7900696706014773
0
0
0.7909850479092738
0
0
0.7902214413527746
0
0
0.7898307038050815
0
0
0.7809176448565801
0
0
0.654768617323543
0
0
0
0
0
0
0
0
0
0
0
0
0
0
0
0
0
0
0
0
0
0
0
0
0
0
0
0
0
0
0
-0.2131680238690902
0
0
0.7737258901696266
0.12533113588702913
0
0.9297647458639654
0.2582196824473077
0
0.9560518994125994
0.2885016154887526
0
0.2776038118226704
0
0.9608191332829273
0.2854026876956064
0
0.9613138565676317
0.9617864494666631
0.23964701306326566
0
0.9574590049838368
0.12606675716552826
0
0.9338328662264382
-0.022388597617119935
0
0
0.8010752325894083
0
-0.12419199275404813
0
0
-0.08709763792236934
0
0
-0.04736880140810728
0
0
-0.049426652012069056
0
0
0.009346715720307151
0
0
-0.0063981072487219
0
0
0.015644496279253902
0
0
-0.013788907158715282
0
0
0
0
0
-0.20276093440409268
0
-0.07306692164639823
0
0.8005998363108889
0.16091998989289721
-0.04286150634831087
0
0.9599379753509019
0.32336649864457007
0.007743196768523696
0
0.9874743694361392
0.36959982441691436
0.032557313667450266
0
0.017099855418349078
0
0.38421283519375043
0.9919097752340703
-0.014240806605434845
0
0.39641162165855337
0.992371004475696
0.9922396908386327
0.290971383140473
-0.0581797393457557
0
0.9885120367967944
0.1667694320301338
-0.055281275352770276
0
0.9636082416073334
-0.028889596372298165
0
0
0.8137104643117715
0
-0.0987002740795571
0
-0.14142098048632604
0
-0.09801035153406416
0
-0.042491743816986845
0
-0.11083685013464827
0
-0.06799261800638325
0
-0.05842132482648597
0
-0.027515433022051176
0
-0.004034325839328682
0
0.01829881854417603
0
0.014184421595088648
0
-0.0190929031365943
0
0.006011407243704564
0
-0.008315622190054219
0
0
0.03813796786066705
0
0
0
0
-0.15309026040082688
0
-0.1039427622351307
0
0.8060586284044499
0.2007827633037967
-0.12157636417040547
0
0.9660049312353126
0.3446411210386629
-0.11016823282842793
0
0.9931048994902524
0.41669219842912336
-0.10778122066198469
0
-0.11583375209647695
0
0.4469989315486403
0.9975233237488923
-0.07961839280694051
0
0.4038025240329676
0.9981471776222489
0.9976782494694701
0.3118891225379905
-0.04660786716257883
0
0.9937845741746317
0.16235816262381333
0
-0.0185918269753797
0.9682261759440459
-0.019050139178731773
0
0
0.8144286330649001
0
-0.14646815551507464
0
-0.16572104253688383
0
-0.10970657764504342
0
-0.12276922400015651
0
-0.04491009414588268
0
-0.05271327709832902
0
-0.034990783229427495
0
-0.04549083780704868
0
-0.01736024664303298
0
-0.02534257360043783
0
-0.04123358850116168
0
-0.011790745538131331
0
0
0.03324946902486878
-0.008535135024523575
0
0
-0.017274390264306997
0
0
0
0
-0.15411472648771685
0
-0.19637764190283138
0
0.8067003836570646
0.2094713602600492
-0.17471426586072528
0
0.966787966610923
0.3573609756740374
-0.14949442373045416
0
0.9941415459202408
0.42810623564369443
-0.11126155604921258
0
-0.06738774102404481
0
0.4176340486493994
0.9987906391134369
-0.0266971657236167
0
0.40121560774542614
0.9991682274947707
0.9987518495420903
0.2948716145175592
0
-0.028637568727213274
0.9945346570571604
0.13648850779905206
0
-0.0877073480024513
0.9683571768467498
-0.043200360030389066
0
0
0.8142225171582264
0
-0.14693594580449565
0
-0.10099889458590401
0
-0.03221905940184966
0
-0.09981617631234528
0
-0.05516763341711648
0
-0.07018684863306063
0
-0.024691005937308958
0
-0.07293554184979323
0
-0.05429862184541825
0
-0.0395632876527755
0
0
-0.011875353063740213
-0.01376713036760069
0
0
-0.057863527723781054
-0.026317350648972903
0
0
0.0169413626929581
0
0
0
0
-0.15741658471675987
0
-0.16090732428278007
0
0.8065693811534237
0.17732496280440213
-0.1177624344236947
0
0.9671668799499945
0.33558624089939904
-0.09025815346848104
0
0.9934044635585196
0.3832119173747142
-0.04131195900987908
0
0.017556986243094635
0
0.3883108806868305
0.9975798062972916
0
-0.0392545243069963
0.3118717298041637
0.998298728737685
0.9981089550412817
0.2720418353720566
0
-0.03736121090135633
0.9935225516904787
0.15305447960560448
0
-0.09969743515567746
0.9677335384143895
-0.013497738473648012
0
0
0.8132495952426654
0
-0.043100654040887816
0
-0.13139283047809738
0
-0.020520244525825685
0
-0.07589761992077876
0
-0.0011225204421898944
0
-0.08566488170368886
0
-0.02860586735258223
0
-0.07971616927454628
0
0
-0.036838584890603744
-0.06632011985601925
0
0
-0.0542290977022247
-0.047396558598568526
0
0
-0.034538143712568546
-0.004596542234383009
0
0
0.0029849713039738963
0
0
0
0
-0.202267114676124
0
-0.03523820633910723
0
0.8063859966313965
0.1857397772577993
-0.06868116932038683
0
0.9623834224613628
0.32632119982950347
-0.061023347461277334
0
0.9884850382539122
0.3838323123710576
-0.0404944164080634
0
0
-0.06660457105380317
0.3804293028987182
0.9921493875968507
0
-0.05716778118401613
0.33595744063950295
0.9929674607245839
0.9921433421492759
0.2437888604029537
0
-0.07841494992341676
0.9876468976843759
0.12347290829826137
0
-0.05735908629288678
0.9624795679579724
-0.015928790089491125
0
0
0.8083888647848673
0
0.0020622430339966168
0
-0.12668226428796137
0
0.0014269076163582741
0
-0.11096477468857337
0
-0.010181846807909038
0
-0.07632334470517253
0
0
-0.03913615837361517
-0.05245189107022355
0
0
-0.10084998449154399
-0.04774364430483733
0
0
-0.056769157429304405
-0.04368628318448143
0
0
-0.00678477839357228
-0.003064916310463592
0
0
-0.025442401733008494
0
0
0
0
-0.18492294332548154
0
0.02054368919088034
0
0.7941627233155993
0.14329671086137907
0.015452435756142304
0
0.9331473275234005
0.3273328761878569
-0.006272729089518248
0
0.957673572488403
0.3677226594333997
0
0.012004900055967492
0
-0.05094463496620491
0.39482510060719256
0.9609529200489976
0
-0.021593058475948793
0.3495554914708226
0.9611709930442581
0.9607814178728299
0.2809211662214715
0
-0.03641373144597246
0.9567799289384182
0.14215976302822483
0
-0.08463734785922572
0.9309420859342139
-0.04087314161106517
0
0
0.7812291956670524
0
0.023319573728488033
0
-0.13314672682267745
0
0.018639822502264706
0
-0.09360701768562024
0
0
-0.018836280615651953
-0.07087159161211233
0
0
-0.0792494206116357
-0.03318420993216838
0
0
-0.09465261527632535
-0.02232905473690487
0
0
-0.061048469816068186
0.016531297411668273
0
0
-0.0252004743414842
0.0012613929639095735
0
0
-0.025537759390761635
0
0
0
0
-0.18772417174782804
0
0.011982125537758214
0
0.6466625556972038
0.1589957492558853
0.01751783575593047
0
0.7809999527114533
0.27268143210751616
0
0.005336860389195713
0.7906131530845952
0.3421223577242643
0
-0.06688944007255128
0
-0.06399734060085412
0.35138778946727806
0.7911022787163814
0
-0.09032314234976518
0.31861299251110603
0.7906860212413526
0.7899349051888862
0.24163525637030703
0
-0.04521600205647383
0.7860328306880239
0.1136386326571411
0
-0.07155885158623909
0.7643075931681073
-0.02551075562107474
0
0
0.6360325662746485
0
0.0035358215218592444
0
-0.11435847084475935
0
0
0.014220174881782179
-0.05113428820806074
0
0
-0.05394292556782219
-0.028289772664353504
0
0
-0.0764479966950759
-0.0030150643381291475
0
0
-0.06882285180109914
-0.012269691113441982
0
0
-0.05370362270930085
-0.022358533971670033
0
0
-0.010422505597608746
-0.006852899787450903
0
0
0.007856281243811762
0
0
0
0
-0.21468487087422886
0
-0.009397983120373403
0
0
0.11301804434887373
0
-0.005120630022925483
0
0.21213981970434048
0
-0.004431091532674015
0
0.2581189811553645
0
-0.03331794429930398
0
-0.02217332209848755
0.2596274841483577
0
0
-0.023393397456882126
0.22802953547259366
0
0
0.16101013385800844
0
-0.05322652320566959
0
0.061387927683319556
0
-0.08105721596201641
0
-0.08573561839424594
0
0
0
0
0
-0.03206163449096048
-0.10358024023471642
0
0
-0.058101215006665104
-0.0657822964501243
0
0
-0.09078696526868285
-0.06881947632094981
0
0
-0.05486900078798099
-0.01318109377565293
0
0
-0.0674477154964584
0.011106263200778342
0
0
0.0036529660795954198
-0.018840815683021817
0
0
-0.024297918697824286
0.012996091344578858
0
0
-7.976405249223666E-5
0
0
0
0
0
0
-0.03192886834951833
0
-0.08872106381505823
0
-0.02171723577795737
0
-0.06100097328003009
0
-0.057022967383246005
0
-0.028870696337023213
0
-0.00251451069879613
0
-0.015400270880774265
0
-0.021121817928924605
0
-0.0177055208643959
0
-0.00920829409557847
0
-0.039195606395244435
0
-0.06275136775770385
0
-0.09475801035446724
0
-0.06808658325027263
0
0
0
0
-0.05440727607524068
0
0
-0.03117564337506151
0
-0.08710991678289455
0
-0.0496592493326701
0
-0.11119269067788505
0
-0.05993717945829858
0
-0.03799698659002867
0
-0.03039090311471083
0
-0.016710959127434814
0
-0.025748570753092438
0
-0.019756745370809407
0
-6.158831330954312E-4
0
0.030435407161172618
0
0
0
0
0
-0.005450051211994263
0
-0.1235220519023567
0
-0.025406447503325432
0
-0.14068402781226577
0
-0.03324061488388818
0
-0.1413071030593294
0
-0.010682188045683987
0
0.010941778617236388
0
-0.12574330580805707
0
-0.05255265209915407
0
-0.13208815954069353
0
-0.10333512296491182
0
-0.04920639118573559
0
0
0
0
0.013704978174184883
0
0
-0.012445776328804137
0
-0.1195984627119104
0
-0.05573061420733929
0
-0.10201171192065406
0
-0.059082581238676234
0
-0.04961643921426786
0
-0.054330585661859825
0
-0.027639685992564608
0
-0.0036001717405858744
0
0.021142390349615695
0
0
0
0
0
-0.0016532358462595697
0
-0.12885761052320457
0
-0.04141108890478971
0
-0.12380793110279818
0
-0.007839878110605304
0
-0.1211934520555779
0
0.0035319385137709083
0
-0.015651695957972837
0
-0.10634053822385309
0
-0.013923376833907613
0
-0.05733587219553244
0
0
0
0
-0.009433746313897961
0
0
-0.058737331122435364
0
-0.13666178214041047
0
-0.048496688893915126
0
-0.0830866495174391
0
-0.06195339722990748
0
-0.005613411872973429
0
-0.04486569166471818
0
-0.024041719335716787
0
0
0
0
0
0.008864363992723287
0
-0.11538415144671725
0
0.0163772198660912
0
-0.09789790957893228
0
-0.012743620605370008
0
-0.07201686309360002
0
-0.005281383013403237
0
-0.026325163532169408
0
-0.08247354705903981
0
0
0
0
-0.04078185756666242
0
0
-0.07821336635661026
0
-0.11869249259317098
0
-0.04780184349876194
0
-0.0050048943167726075
0
-0.05362719379837774
0
-0.015412365148711587
0
0
0
0
0
-0.0012724698865529656
0
-0.08214716442660276
0
-0.0015457317546401321
0
-0.06310399939138088
0
0.007096647225802608
0
-0.05486257819744538
0
-0.03691804783375894
0
0
0
0
-0.06151353161912081
0
0
-0.044126441226001185
0
-0.023782424388121285
0
-0.04772229456485975
0
-0.03254172337221906
0
0
0
0
0
-0.020852441648715806
0
-0.0463561346950262
0
0.004014361732448197
0
0.004949710679291324
0
0.010073037546074394
0
0
0
0
-0.0659452740516313
0
0
-0.03744800477139632
0
-0.0048029081646625985
0
0
0
0
0
-0.03160681084114259
0
0.0033646345690244678
0
0.0038042874475599244
0
0
0
0
-0.0014356169019173325
0
0
0
0
0
0
-0.025943210254386503
0
0
0
0
0
0
0
0
0
0
0
-0.12996793103244508
-0.08088116261792043
-0.01978785721093991
0.008580402831278975
0.01635443072950282
0.014587557412999512
-0.054572820701768394
-0.13750993365700429
-0.1253744415024225
-0.11752913026931507
-0.0596321485299857
-0.020862373609866428
-0.003057589613528399
-0.13095342616174874
-0.15776006484648442
-0.025074142466535707
-0.1662020500262962
0.036809838749322504
-0.18601016403324608
0.03586509655884926
-0.1888738210279893
-0.12712787773980502
0.011178880183345508
-0.08357417415585021
-0.037785786079361
-0.06712767575498303
-0.17005804320671605
-0.1891947080719453
-0.1824540553861067
-0.13571663080376425
-0.11960018820478226
-0.12283293958709239
-0.015120460826741013
-0.09035176390335
0.023683344675641326
-0.047661052091338314
-0.04735615570189797
-0.10826174269155736
-0.1694569016429814
-0.21315658391433143
-0.023329775983814142
-0.14221830320936077
-0.23657116974297962
0.010672870947786768
-0.1554193285359001
-0.21362162431040088
0.0528672100587537
-0.2009424083955554
-0.16850488771475944
-0.09305428674905027
-0.1801368359278831
0.006159587391997401
-0.08738570568262834
-0.060055007251689684
-0.1043639778734637
-0.20319540006595785
-0.1690495392543894
-0.19849601491437807
-0.10239059013156822
-0.18758401528796934
-0.1681257839164655
-0.03889982063414197
-0.1287595943368038
-0.08905763749512036
0.018220562805755253
-0.05779147072549901
-0.09623874645221292
-0.07301912674701844
-0.013527077462715748
-0.05711430880277427
-0.09529818715398149
-0.19066549315263223
-0.16118587020014005
-0.2098263449197552
-0.027143947885722344
-0.1723821329483456
-0.18568146706439617
-0.18629972152312702
-0.00795002454096355
-0.17044021318235106
-0.232760868887679
-0.11138946425078873
-0.007997096947287645
-0.16454347724135412
-0.19741285177624182
-0.09610693582428854
-0.11658464449329863
-0.14000366846902765
-0.006429779515326831
-0.12599039425899547
-0.03680052221860475
-0.08320035004805428
-0.10397155915048802
-0.18658901258261515
-0.18688866227698506
-0.1292803052950663
-0.05845942152300993
-0.1297704073789712
-0.12358858589186916
-0.13088876577994102
-0.04274231445278965
-0.08519255196680581
-0.14340444161692115
-0.11090419731452851
-0.08658350241652785
-0.12654078405059052
-0.1028826189871343
-0.11703662400262317
-0.062307719041697573
-0.09038826657907045
-0.10805995919470864
-0.18812374244263155
-0.17064791869417253
-0.189741394860628
-0.13428461989460594
-0.06554509205921162
-0.18866964358616803
-0.20740138022758145
-0.23059351988233265
-0.07952486275573876
-0.03484723784615006
-0.16721588790817113
-0.18428726124468223
-0.1869850685396436
-0.04821532364197111
-0.004712278964384337
-0.12385473994294449
-0.1629439812726398
-0.12367858899849347
-0.09787064772452637
-0.11264420419542882
-0.019687495292268545
-0.10108271234562445
-0.07627875951691566
-0.09192874668973589
-0.0877404385731786
-0.1272077867755712
-0.18391929781713637
-0.180593283456254
-0.14988151443585943
-0.006728107108933209
-0.1135284888573908
-0.17067074996541198
-0.14308171961328417
-0.17337419729608172
-0.1091962451968786
-0.15121341776697947
-0.1498947147947933
-0.14019057346883249
-0.14198750531345553
-0.13892147177894273
-0.0777370435046829
-0.09149299114437426
-0.07628756932732346
-0.03417817960799732
-0.09955011931271279
-0.21107716653805764
-0.18448261034244187
-0.22390703959071465
-0.17028186128989994
-0.08482471304549427
-0.08450153943765669
-0.18955032934202387
-0.20561467048258353
-0.19072868017007463
-0.17256081908857268
-0.03951241956287568
-0.057356117621496526
-0.15232189395407478
-0.1730555393897153
-0.16071222917762826
-0.13076645409700885
-0.03260947420508498
-0.17826994540200622
-0.1408081766285211
-0.12814512538811718
-0.13167742364960866
-0.14306583244918022
-0.029687138999129226
-0.10059663665394773
-0.08043104202251367
-0.09500704977860668
0.0020463582751720894
-0.13178041010551786
-0.16216286432162275
-0.152936788445484
-0.1906114628448323
-0.16814720285649976
-0.0715979310029678
-0.11577009024705553
-0.15972709566648813
-0.1438224339487166
-0.13368912483302356
-0.15938558435925143
-0.15023860381700074
-0.08485471436721609
-0.09107792206484673
-0.11418686482519604
-0.06589137609609975
-0.05507792426059093
-0.05878682129740579
-0.05230884576582207
-0.020930262157437044
-0.1068507096216149
-0.16635722453944765
-0.1845627585405364
-0.1939507725628591
-0.19713274872000308
-0.11644123453758047
0.011422175858388119
-0.0522560602161739
-0.15758707161128038
-0.19349001211684894
-0.1381987007612078
-0.19992099272213892
-0.0666090278385601
-0.01925670438856998
-0.13871392705743577
-0.1910908267013286
-0.13960147682051274
-0.11541090093282667
-0.03219002886214239
-0.13646985505882003
-0.13370516553478232
-0.10709608945760486
-0.10436777082359683
-0.1486140705947928
-0.030265131178391348
-0.11943498065724582
-0.04687979646945229
-0.08224025226821953
-0.06444922959454175
-0.12255599875544078
-0.16570964973064528
-0.134598291019833
-0.1919989089993326
-0.07923246864223875
-0.14379506851241916
-0.10131821394972952
-0.08899460460724722
-0.14378567805795928
-0.08234312049604299
-0.14152616676590254
-0.09014935142666226
-0.05989570213786372
-0.07840531814228636
-0.131831570064274
-0.054433239481360335
-0.04268214195260079
-0.03001446941946991
-0.06710467245137758
-0.018504952828375994
-0.12880105615378235
-0.19069463416233579
-0.1364293448638222
-0.15040142137719179
-0.11199214025583792
-0.02536422213894142
-0.13730482152065837
-0.18810919910123858
-0.1342044684022898
-0.12823610307586805
-0.07425706696519473
-0.10990643106367891
-0.1786108715552518
-0.1106607026850487
-0.0656509089275681
-0.13843624514871924
-0.1301222886400644
-0.10562007235675942
-0.08924004222534232
-0.15268174746758142
-0.14668911732688092
-0.07117240853180351
-0.11287016683713476
-0.09657631408674068
-0.11906681529871709
-0.12261058878044646
-0.12222726532602037
-0.07836637532452674
-0.08656000429896032
-0.12845103586484055
-0.08998305793186939
-0.08298017102971249
-0.06594744965257944
-0.05612581133299372
-0.05048991380271115
-0.008763915703781535
-0.16599358155339464
-0.11045231886352848
-0.054982577772834135
-0.0717322803347948
-0.053700908753157035
-0.16421577471576454
-0.13697375821129396
-0.04132029265441109
-0.045825947639962415
-0.13347447994624237
-0.1113833939263794
-0.03218086682886286
-0.17801075725498017
-0.038284032311839654
-0.11178594428458398
-0.07296468583206568
-0.05917309542092462
-0.08822566330484218
-0.12425704614534638
-0.0785438332576389
-0.1143084541016187
-0.10299765234420583
-0.09616079567906693
-0.06443435828514811
-0.059599202709442155
-0.1285128258105361
-0.08523653817269207
-0.025334510326060673
-0.05383651506707335
-0.134953464341335
-0.07530411553244624
-0.008116384674282136
-0.10567909570545493
-0.0264492906374599
-0.06749986501082066
-0.08180201147765015
-0.09578845823172717
-0.11311847877276564
-0.09411464902433896
-0.12032597487211481
-0.05471101427691158
-0.10692385352826511
-0.0602615214842331
-0.026249242258077305
-0.08689809750319812
-0.030954448422626398
-0.02797502279922903
-0.07012308236190122
-0.09059801163324893
-0.04565196323327736
-0.03566685504794797
-0.05198404664788558
0.003202680634874429
-0.06317577632561443
-0.03944898378062653
</DataArray>
<DataArray type="Float64" Name="v" Format="ascii">
0
0
0
0
0
2.09118134266852E-4
0
0
-0.0023410768044086843
0
0
-0.002259353569329082
0
0
-0.0027225302562379626
0
0
-0.0023932951419613313
0
0
-0.0022454414825087174
0
0
-0.0027682811968311187
0
0
-0.0037502576959908694
0
0
-0.005618887437622879
0
0
0
0
0
0
0
0
0
0
0
0
0
0
0
0
0
0
0
0
0
0
0
0
0
0
0
0
0
0
0
-0.003575943867063364
0
0
-0.0034800413432358873
0.019396621673699474
0
-0.001369146826022509
0.016318032535194944
0
-0.0014495167224085786
-0.008870624132480938
0
-0.015539995803700394
0
-0.0010492630680208543
-0.030165534211457398
0
-9.49515521062592E-4
-8.311748995499454E-4
-0.02277783617047002
0
-0.0010907621472972249
-0.010532919899962113
0
-0.0013222665180944468
-0.059647654071674834
0
0
-0.0014810809693781791
0
-0.006255532518735893
0
0
2.4899521443569247E-4
0
0
0.003736849634765532
0
0
0.014116215746614235
0
0
-0.0031448387839040966
0
0
-0.0026633287218541125
0
0
0.003837990779722727
0
0
-0.0024223193138722273
0
0
0
0
0
-0.013241582716112215
0
-1.4147568260771412E-4
0
-0.003490482364103501
0.020149914867178372
-0.009377184622922032
0
-9.84412817202584E-4
0.01735555086666118
-0.008889523167645574
0
-5.873904575570902E-4
-0.007815381364003613
0.005623524170846287
0
0.011281079630204085
0
-0.007982563429035536
-3.227743864556275E-4
-0.0015093681945511433
0
0.003820910117970371
-2.8596001972326467E-4
-7.895028341958534E-4
-0.043921082724697275
-0.03745632067278503
0
-5.983779270167251E-4
-0.03156706288303778
-0.03554621328414421
0
-6.150004065528493E-4
-0.09499982321315698
0
0
-4.883576306749228E-4
0
0.008726032744518239
0
0.018121328299020908
0
-0.00920317643174015
0
0.045454969896331125
0
-0.01504200496391043
0
0.015060077713232797
0
5.696523565753932E-4
0
0.03021193267295007
0
0.0231382345242241
0
0.024947409162077563
0
-0.014845194318137042
0
0.02290190380335688
0
0.009102993353644477
0
0.021367648458539598
0
0
-0.016617678826947133
0
0
0
0
-0.05476337308022275
0
-0.006282132991259311
0
-0.00349167472646116
0.014014250402776466
0.017561549188806366
0
-7.860507149539919E-4
0.010698776009134499
-0.0032860931813464434
0
-2.243796506656209E-4
0.02981160864459752
-0.005701371204500687
0
0.013207787139326852
0
0.021760387261116686
-3.836684710601406E-4
0.025304124613067417
0
0.0011911320620869132
-3.4247946417042266E-4
-8.107470347754011E-5
-0.025888150952333974
-0.005299850474649991
0
-3.446074897002328E-4
-0.02992431422150324
0
-0.021670831580947722
-3.9481829061879277E-4
-0.05552467974304059
0
0
2.445698591411715E-5
0
-0.004657467474520728
0
9.496564979714223E-4
0
0.0013292847433491286
0
0.013989918498427805
0
0.02171584097448642
0
0.010244137185267864
0
0.0075902915698592395
0
0.02070432227298051
0
-0.015112956608709052
0
0.029237727094803104
0
-0.012411581895297142
0
0.023102426172397657
0
0
6.985078671399389E-4
0.019486846241918755
0
0
-0.03236820561006833
0
0
0
0
-0.044084086891021494
0
-0.004695339055828251
0
-0.00350901900116835
-0.012789953310061754
0.027923337191151438
0
-0.001351889921723621
-0.003589633879121048
-0.008685556162508936
0
-4.558633366539381E-4
0.021911300830726125
-0.020232506164917338
0
-0.011108476353883685
0
0.014115541082371614
9.701250750490592E-5
-0.006789463212136072
0
0.004460675459195772
2.3628308993385767E-4
-1.0581288807605847E-4
-0.01701266884627584
0
-0.005896265678238126
-1.9509593207986352E-4
-0.04061700170722304
0
-0.04111298436024625
-0.0010942048240577052
0.0050660255111283645
0
0
-5.798218151809978E-4
0
0.00570867710396693
0
-0.002578539848206981
0
0.041027029738477855
0
0.015922974705958732
0
0.00895274608586933
0
-0.035714563225918115
0
0.014221316905845586
0
-0.02326403223255717
0
-7.036862064060827E-5
0
0.0016938557349517457
0
0
-0.010088941759689808
0.06315711377929743
0
0
0.020630446332779214
0.005302401737402097
0
0
-0.009363194735473446
0
0
0
0
-0.05244574020253865
0
-0.0035252106718559923
0
-0.003290941794766688
-0.024479588872747256
0.016061229269024466
0
-0.0011286018096099764
-0.0057911391534039465
-0.00964876486017569
0
-3.3986030272451867E-4
0.01571314368922144
0.018840115019907122
0
-0.008554705185649715
0
-0.012498444335950798
-3.415599732903559E-4
0
-0.02896837499091968
-0.012871481644775647
7.44029412884803E-5
-8.549358745605262E-5
-0.026549024352497955
0
-0.042837100761051745
3.201297508821087E-4
0.02345427952076846
0
-0.0350245492226939
-0.0012380150569904495
0.046928289561111926
0
0
1.375147072817505E-4
0
0.019695361085348303
0
-0.017121820709629806
0
0.0021879074670777664
0
0.0018163710684656936
0
0.024947473511417476
0
-0.035365918590060295
0
0.028123884969055078
0
-0.038588700265969916
0
0
5.510101652901363E-4
0.03265498136166134
0
0
0.015378497633934786
0.024875380419281515
0
0
0.014045407809209912
-0.0048124912683949065
0
0
0.02144141578496965
0
0
0
0
-0.09095984114153842
0
0.03539974826165549
0
-0.0036250001660704943
-0.015975946104375485
-0.019442929351823846
0
-0.0019160565712441067
-0.011063305007175618
-0.028302932418032428
0
-3.232623609170825E-4
-1.1628318297766135E-4
0.0033959715816159054
0
0
-0.028109241576038325
-0.029848179986625024
2.4334251258157494E-4
0
-0.014061175806954413
0.011534099614753579
-5.8707523882919764E-5
4.992264998021157E-5
-0.030595758538363934
0
-0.04945308303464788
-5.978706055390751E-4
0.05860717246012357
0
-0.030040797898208908
-8.173013955614738E-4
0.02602059007626679
0
0
5.516393229669372E-4
0
0.008641685397909634
0
-0.029726474403451303
0
-0.01933337877752816
0
0.001879002602383192
0
-0.0011673164060838623
0
-0.059834701714328954
0
0
0.024124972901297597
-0.026032763938190026
0
0
0.013980476469369339
0.026717114198127136
0
0
0.03580928541381046
0.01375591875258527
0
0
-0.001977846780322442
-0.015559619822198839
0
0
-0.009102756336530906
0
0
0
0
-0.08290724159535932
0
0.0028323042925930335
0
-0.004838300164537136
-0.03792404634486347
-0.0540165958537333
0
-0.0017773763352189182
-0.03304545486355412
-0.023774541750102587
0
-0.0014361615780968857
-0.030304509683022226
0
-0.02172156676347287
0
-0.019851364371430605
-0.013837241908788307
-6.426704550721776E-4
0
-0.025160926901298827
-0.014349960890331062
-6.11819170662748E-4
-6.162365747961862E-4
-0.024544574334692964
0
-0.019677241783450525
-6.350612641840323E-4
0.04315929406121957
0
0.0071808073488762525
-0.0012086603418094335
-0.002642654201471058
0
0
1.9278192446511126E-4
0
0.007656106062065303
0
-0.05678432327905545
0
0.00874817281148844
0
-0.02215127790754028
0
0
0.003909811173604853
-0.05334739446190009
0
0
0.009742941806770709
-0.03895853542366115
0
0
0.017897608796534733
-0.014551739537870386
0
0
0.0255664675171066
8.915441580266517E-4
0
0
-0.03121494200697465
-0.024014302065929406
0
0
-0.02354423272023798
0
0
0
0
-0.1006249465994184
0
-8.161125126826935E-4
0
-0.008361220984366364
-0.008447054967582883
-0.0016829362648823848
0
-0.0039289906903780545
-0.009733989258611494
0
-0.03102727274645577
-0.0023052720886175
0.012017608750676626
0
-0.04967302563572049
0
0.015748204910722322
-0.001231412804988445
-0.0025357817158428624
0
-0.0014003078337473873
-0.01669211597415021
-0.002434557874674271
-0.0023644637340674147
-0.01743412859498428
0
-0.015356701755424971
-0.002695636742695643
-0.002226418555509785
0
0.008026429061165073
-0.00217777133762987
0.006921080545096037
0
0
0.001551332856920343
0
-0.014289019336048403
0
-0.050584564196650667
0
0
-0.014862641113638496
-0.017551097549804256
0
0
0.03178568660335191
-0.002866941731093314
0
0
0.05099891733848224
-0.009686499950475156
0
0
0.0394401385451475
-0.020174666903649316
0
0
0.007636429208819286
-0.019459061256470442
0
0
-0.02250175126030995
-0.0443966429714481
0
0
-0.03226552317703809
0
0
0
0
-0.09998776935798183
0
-0.03067641015762042
0
0
-0.018230915928066305
0
-0.023783843007239847
0
0.009075305673637768
0
-0.022827293930205064
0
0.0019191980827367127
0
-0.012403553871988993
0
0.023815534652010143
0.01651046428820878
0
0
0.07245725013261078
-0.015195808515460039
0
0
0.004095818999600708
0
0.009715022917302607
0
0.024204011567413187
0
0.033223571424940916
0
0.02798956967893795
0
0
0
0
0
-0.048426102150856305
-0.03052416400961692
0
0
-0.06707145863855805
-0.020208863216138476
0
0
3.0398501364776916E-4
0.0028420903929898965
0
0
0.02474212174691077
-0.031166275570747474
0
0
0.05213355626242502
0.005323360561755696
0
0
-9.931465965253446E-5
-0.006899207434381227
0
0
0.024327164237944298
-0.035036459172184196
0
0
-0.015295341718882192
0
0
0
0
0
0
-0.04507256494005077
0
-0.018301344889917123
0
-0.030273476721955545
0
0.01371280759625592
0
0.005735169801511911
0
0.027248595162388197
0
0.01789617732462433
0
0.028209250753172387
0
-0.012833216908710289
0
0.02880930369955773
0
0.0022405346603471005
0
0.010541166728022104
0
-0.0018440177863450343
0
0.01541088675179158
0
0.028192067603526553
0
0
0
0
-0.045198386148356
0
0
-0.009153617066613308
0
-0.020357055883417737
0
7.714441219598018E-4
0
8.266825685304162E-4
0
0.026422406023757852
0
0.006936696828489324
0
0.008345408626296355
0
0.010703832494876055
0
-0.009847341748280052
0
0.003975935928478026
0
-0.0032782202859166234
0
-0.037519724675782885
0
0
0
0
0
-0.02223661529363818
0
0.0017651621856482203
0
-0.002253890462365501
0
0.016145754077690148
0
-5.833093185741334E-4
0
-0.02589245797754887
0
0.02232076566879672
0
0.018774629446387234
0
-0.023881867468865222
0
0.026232241372252812
0
-0.01013974960785708
0
0.020346491378040843
0
0.01004268272172751
0
0
0
0
0.0067190018831952145
0
0
0.020870175257903037
0
-0.02635567938796353
0
-0.012154649226886033
0
0.028221427892563534
0
-0.003743226174648503
0
0.030418760390259706
0
-0.02613635074339708
0
0.037567482694978345
0
0.008547060623112975
0
0.0347537102643305
0
0
0
0
0
-0.02511380804157116
0
-0.030694365445160094
0
-0.01983172651739645
0
-0.023424717001459205
0
-0.020742830388096437
0
-0.0057797610258844
0
-0.03070667252506676
0
-0.024057412211800955
0
-0.001997013243599079
0
0.024335631318813954
0
0.0021248347113284054
0
0
0
0
0.015395009199123233
0
0
0.04302501339052875
0
-0.008252692998743196
0
0.003923299270638335
0
-0.006595854551342945
0
-0.022321028227358593
0
-0.03153392224674622
0
-0.01958081782317034
0
0.03075219020349985
0
0
0
0
0
0.004397829627899711
0
0.0028016115882217984
0
-0.008454442072115457
0
0.00818969785447197
0
-0.016378682226553806
0
0.011410084227410909
0
-0.08263194322974737
0
5.679084027510364E-4
0
-0.010325863735084317
0
0
0
0
0.044553471176216226
0
0
0.022661645672317057
0
0.012789545614288392
0
0.0034424643039725616
0
0.014307851432031888
0
-0.0012431011224714424
0
0.03269194787793076
0
0
0
0
0
0.031885113006835726
0
-0.0029821145439767483
0
0.007476281273374355
0
0.010084749805540284
0
-0.016129185365267404
0
0.02265422330294459
0
-0.023708645922813455
0
0
0
0
0.0379990635314382
0
0
-0.003740502740124126
0
-0.006135396011736638
0
7.838919580309651E-4
0
-0.009727186988708473
0
0
0
0
0
0.025739144872880315
0
-0.018185353435686894
0
0.04806704305130673
0
0.016646306063906765
0
-0.01246329871979402
0
0
0
0
0.012381493801476314
0
0
-0.006988325727655565
0
-0.01618671321687615
0
0
0
0
0
0.024312575632614065
0
1.792019752540532E-4
0
-0.004902428853357999
0
0
0
0
0.0022887050471816646
0
0
0
0
0
0
0.009433925358612101
0
0
0
0
0
0
0
0
0
0
0
-0.03371535412176297
-0.015502275492881636
-0.016055065528459925
0.014084289000785009
0.04095983666610003
-0.0017662614258171715
0.009821166072118574
-0.003782640300714983
-0.014533203524203784
-0.009238931990537906
0.017981958477229318
0.0328501101504538
0.008447570521530336
-0.01050225417006833
-0.04316405217065355
-0.027678181085743016
-0.02606920214221108
-0.03434675843259013
0.010481986631972869
0.0029586943360794937
-0.009214064113234728
-0.012642409600248988
-0.00876770252845205
-0.011716416712916544
-0.011722453853420573
0.01802894120748783
-0.05953523122794196
0.013950805677552242
-0.02774839651148663
-0.01931585344578839
0.024925330015380182
-0.021243965729176476
0.0010503615578332274
0.010402322469139387
-0.01876497500103567
0.027710349328936425
0.01616252783140158