<?xml version="1.0" encoding="UTF-8"?>
<VTKFile type="UnstructuredGrid" version="0.1" byte_order="LittleEndian">
<UnstructuredGrid>
<Piece NumberOfPoints="1331" NumberOfCells="6000">
<PointData>
<DataArray type="Float64" Name="u" Format="ascii">
0
0
0
0
0
0.629195618332414
0
0
0.7631841688090929
0
0
0.7861007788026305
0
0
0.7899688047821883
0
0
0.7903721188172114
0
0
0.7899566256264455
0
0
0.7898583500475863
0
0
0.7805884351999798
0
0
0.6549954296721098
0
0
0
0
0
0
0
0
0
0
0
0
0
0
0
0
0
0
0
0
0
0
0
0
0
0
0
0
0
0
0
-0.20398276727277598
0
0
0.7737725259223082
0.10486321306661138
0
0.9296791147193647
0.22779442271868192
0
0.956226320278052
0.29144287851435996
0
0.3005809353462094
0
0.9605692061267229
0.26959510198056963
0
0.960869659860545
0.9610845168174721
0.1921914044836136
0
0.9580183945534214
0.09453071310210209
0
0.9333182349164241
-0.03892847256452648
0
0
0.8011569960402857
0
-0.15792548655344338
0
0
-0.03835847176972918
0
0
-0.029991784998927507
0
0
-0.0022597675181564307
0
0
0.001586782732480166
0
0
-0.007857821381364703
0
0
-0.02317482999265597
0
0
-0.018574392586495948
0
0
0
0
0
-0.20045584005044947
0
-0.08048017781440066
0
0.8010413591877636
0.14956302920970943
-0.044290947924183505
0
0.9606306444555558
0.29668690335159115
-0.013725509839210953
0
0.9880306214618956
0.38895873632882433
-0.03486925769298611
0
-0.03288511714125108
0
0.3776782765899523
0.9918968173892809
-0.026735628439475297
0
0.3144606916542649
0.9927041766899153
0.9919691376314935
0.2564417872433334
-0.08375683671662121
0
0.987957653553103
0.16355973627713108
-0.07570455649890385
0
0.9632292920825597
-0.01226236231720134
0
0
0.8137016885759766
0
-0.12080764904516524
0
-0.13544763447924305
0
-0.07872474756401092
0
-0.07937192177361065
0
-0.04323042381778507
0
-0.058676221281734005
0
-0.026600750828390238
0
-0.06000916754821752
0
-0.04093170833159331
0
-0.00999007597904658
0
-0.07604610830347708
0
-0.023037688477611354
0
-0.04386298220955323
0
-0.03312826235051611
0
0
-0.03210107307583431
0
0
0
0
-0.18443509171908667
0
-0.11134224284618853
0
0.8058080119072387
0.16445626890162482
-0.10862534343245796
0
0.9659315147995655
0.3112886000890695
-0.11321146556262758
0
0.9937210206404857
0.3511913760660035
-0.12506450902702237
0
-0.06741562097169208
0
0.39255529698077907
0.9973987919202028
-0.06048219223696111
0
0.4005702128181927
0.9982846533750727
0.9976381844933436
0.31519072133860965
-0.05673136150323919
0
0.9935293233437795
0.16990823760951249
0
-0.036967893411071436
0.9684632753270316
-9.58827983151699E-4
0
0
0.8139446020208085
0
-0.11596654616772507
0
-0.11395516843209148
0
-0.0825948662672382
0
-0.09813647135620601
0
-0.058145833038443694
0
-0.08235835543744985
0
-0.06235699578372202
0
-0.05533736079089268
0
-0.10098211506173134
0
-0.02302313510861979
0
-0.06616228366649486
0
-0.02359068912024771
0
0
-0.047727785552810785
9.432098668867328E-4
0
0
-0.032791342226894865
0
0
0
0
-0.1704694970920619
0
-0.11441998557866885
0
0.8067140225501189
0.16748241301904165
-0.13437413950639335
0
0.9671392263808726
0.3348262330370106
-0.10375219012495734
0
0.9940141056296318
0.4194948422525305
-0.08971353481274068
0
-0.08882066392572624
0
0.4306435515979661
0.9985357119198923
-0.013814243188546772
0
0.4139294307792316
0.9995165769481543
0.9983596938797413
0.3273110536656938
0
-0.09074732603454311
0.9938460646573973
0.19580969138403184
0
-0.0775161088498843
0.9679964662839152
-0.020006517099476664
0
0
0.813863672385453
0
-0.08236335426683934
0
-0.12317370750156546
0
-0.07840514101030728
0
-0.06664858005227908
0
-0.060338753205430105
0
-0.05585079811655858
0
-0.08686767930520921
0
-0.01472893528687567
0
-0.04614729413246752
0
-0.01800177287270659
0
0
-0.07596426158117732
-0.0506587256238625
0
0
-0.026720497270829927
-0.014954290448728555
0
0
-0.011489966432808809
0
0
0
0
-0.16211853365447568
0
-0.08537617426778586
0
0.8067744699622024
0.1889589250846276
-0.07657373901867116
0
0.9661162994004288
0.35928172917343293
-0.06461122160655604
0
0.9934586104759126
0.42350925424306074
-0.040976959723680435
0
0.00578651781913403
0
0.4225400973787751
0.9978138393294973
0
-0.046407668813624646
0.41304950876700647
0.998918891594076
0.9978818195095714
0.3383625803324471
0
-0.06097679771548862
0.9928866581549086
0.2207731974550361
0
-0.04243387400526466
0.9674510533287498
0.016330013202759494
0
0
0.8138216281140931
0
-0.07617191104280584
0
-0.16818900458395525
0
-0.053361898647718516
0
-0.06573636430583397
0
-0.044634052110752005
0
-0.02504445286771161
0
-0.028992578491478394
0
-0.011846665397303802
0
0
-0.10378415615027331
-0.012473680407354007
0
0
-0.04636726778124425
-0.020921162700244137
0
0
-0.05455671893244332
0.013015762050241445
0
0
0.007560173766171093
0
0
0
0
-0.15358263870384456
0
-0.06497327805000007
0
0.8062471989519769
0.18561855251958273
-0.050752540508563676
0
0.9623121453071602
0.3401871406815282
-0.01677432308317089
0
0.9880435682309715
0.4293540034731862
-0.024403582186036707
0
0
-0.03616016449264902
0.4723391683078018
0.9926677617034764
0
-0.06366511640996551
0.4349395866785794
0.9926117506863045
0.9920031594230975
0.3659228444765257
0
-0.04766959935554108
0.9876733308166271
0.19596371570106996
0
-0.07506955007501888
0.9619314232250905
-0.004738961853960625
0
0
0.8082590722733455
0
-0.0761917624722002
0
-0.13710349951842635
0
-0.02352423753009393
0
-0.09349568900717259
0
-0.013397913051565402
0
-0.05643861187789923
0
0
-0.04200054202516668
-0.034624711213576166
0
0
-0.06147695962628682
-0.013588921279646395
0
0
-0.046984905206585166
-0.015628296246748313
0
0
-0.011487183144341377
-0.018449853606307177
0
0
-0.006676276986772064
0
0
0
0
-0.17324541068781804
0
-0.07096407245164073
0
0.7931015269300324
0.21193346245070488
-0.05627806279147155
0
0.9318575995077638
0.38026453395400694
-0.008939867162012177
0
0.9580098800447504
0.46189549651151135
0
-0.026941439537046055
0
-0.054554497370104184
0.462148728082497
0.9606858122827832
0
-0.05374467734654515
0.41581065102298864
0.960712190328588
0.9604791413815602
0.3083697941969541
0
-0.11668924921133293
0.9563268055257179
0.17956856636534987
0
-0.09248396980084334
0.9305633194922239
-0.03759761402210524
0
0
0.7809187213181753
0
-0.024439698287397154
0
-0.10700284002319654
0
-0.014095507624632025
0
-0.07492985684666158
0
0
-0.005123458575536085
-0.03949150580634587
0
0
-0.056427746951058406
-0.007184731687192109
0
0
-0.022435824685503817
-0.06651490423273658
0
0
-0.02280467397076547
-0.04839043622244202
0
0
-0.012977466225643476
-0.03330436648572222
0
0
0.01086242294703177
0
0
0
0
-0.21398600440062554
0
-0.014430009606459277
0
0.6466511822666695
0.14854694254758846
0.00907035686318252
0
0.7809689050587192
0.33984774210528373
0
0.0032050073266639708
0.7902971707451104
0.4077427771855777
0
-0.030299464202040844
0
-0.04074014689029259
0.44771332806324554
0.7911502991994298
0
-0.06796289385700847
0.41097408266394564
0.7907508489701934
0.7898604683246554
0.35204050462810516
0
-0.0689038914949509
0.7861175193639555
0.18124268805962485
0
-0.06342483879901721
0.7642186034542856
-0.007787324029390501
0
0
0.6364467497573456
0
-0.0014811959932155899
0
-0.14677730651595725
0
0
-0.004927725262238249
-0.0832133360724408
0
0
-0.04769391467683603
-0.03184743766516163
0
0
-0.04127243575774064
-0.034280063397290735
0
0
-0.055361493388151016
-0.018646257291541995
0
0
-0.04316144056443691
-0.0405518937216561
0
0
-0.0333992270457076
0.008929901036292327
0
0
-5.329160602554618E-4
0
0
0
0
-0.22715045572951217
0
0.006100976263400477
0
0
0.09144870961364249
0
-0.020903437868780742
0
0.2091707956857588
0
-0.011632070959805818
0
0.3146291787961469
0
-0.01571935998771849
0
-0.006473617256070846
0.3325536353591809
0
0
-0.07498475121338012
0.31849415409608567
0
0
0.23370192610599103
0
-0.03082531053492618
0
0.10148196162507088
0
-0.05238831448980497
0
-0.09650150040324772
0
0
0
0
0
0.008846928747812706
-0.10588462874974315
0
0
-0.04983932752881651
-0.05628698304938442
0
0
-0.04447949910637695
-0.01929419403516713
0
0
-0.0944319481133616
-0.020398157706575923
0
0
-0.03549233392911232
-0.03209143610536148
0
0
-0.03833964906738829
-0.03138543955602203
0
0
-0.03667505915276458
-0.025618902844130816
0
0
-0.04394732134513954
0
0
0
0
0
0
0.015257942269873313
0
-0.105165665079455
0
-0.0224288125736989
0
-0.02538359189272654
0
0.022209410589318194
0
0.010405563101697742
0
-0.00607782700580019
0
-0.035239017335394036
0
0.035964206062993546
0
-0.04497165615805163
0
0.048510041262783715
0
-0.04532578716698185
0
-0.05478016344093329
0
-0.0768041517625815
0
-0.06496512696721779
0
0
0
0
0.01869353494942598
0
0
-0.01900618673206728
0
-0.09830919270841824
0
-0.09486311397551435
0
-0.05073397028708579
0
-0.08399569661042455
0
-0.05265586724719232
0
-0.025737783512916376
0
-0.06404829563385268
0
-0.06366004908992727
0
-0.040240710646407135
0
-0.059208619634090555
0
-0.06449243309336634
0
0
0
0
0
0.009112311212689767
0
-0.08295105705162115
0
-0.01522156335004327
0
-0.06107581264900225
0
0.002632915732046352
0
-0.04790380968953998
0
-0.009759432290004637
0
-0.04608751364147786
0
-0.044997941232184056
0
-0.03285293538807018
0
-0.0625058801355242
0
-0.07695073579289445
0
-0.05569368833761993
0
0
0
0
-0.00830926117035006
0
0
-0.07293837168105882
0
-0.08571141029104573
0
-0.08986749606344423
0
-0.07586037939773484
0
-0.07209588409477051
0
-0.10216497959235876
0
-0.07334063488368357
0
-0.05639628977009469
0
-0.05913248048122855
0
-0.07287492437269821
0
0
0
0
0
0.005022514395215381
0
-0.08942957240452774
0
-0.010882184820295036
0
-0.10405347543947546
0
-0.045105278321906715
0
-0.08110561304864074
0
-0.009726515876230054
0
-0.0015744623325007823
0
-0.06943942952534578
0
-0.05657385697199772
0
-0.05625223835987018
0
0
0
0
-0.03772283245900313
0
0
-0.07913107690797076
0
-0.09016496060204243
0
-0.07798825578119216
0
-0.11487773993731075
0
-0.027041194529802068
0
-0.10284767100667598
0
-0.02464591854784537
0
-0.06405203983541223
0
0
0
0
0
0.005748276293058213
0
-0.09459731240713781
0
0.002176981114377453
0
-0.08270965028005478
0
-0.025037519300655047
0
-0.11344196281727574
0
-0.016003459020724527
0
-0.048894695159620964
0
-0.1165348182481294
0
0
0
0
-0.06703414106502616
0
0
-0.06065792733059411
0
-0.10374441821604032
0
-0.03691822109286533
0
-0.12317162001778674
0
-0.0089128837999966
0
-0.05833883040205342
0
0
0
0
0
-0.022633068150660615
0
-0.1161030222340655
0
-0.02890438492870055
0
-0.1136970540760811
0
-0.004248273961164635
0
-0.09153006588429059
0
-0.012526064007426431
0
0
0
0
4.742539362699542E-4
0
0
0.010515351779434327
0
-0.10542748731667574
0
-0.001488673504770193
0
-0.0465553662326397
0
0
0
0
0
0.04019102872551116
0
-0.03654914066130332
0
-0.006362718860484367
0
-0.02826181308950249
0
-0.03350547605281614
0
0
0
0
0.04727039300548875
0
0
0.014810542119069682
0
-0.013732004600216362
0
0
0
0
0
-0.0029091142705987695
0
0.0032144247832651632
0
0.0019156379112660186
0
0
0
0
0.0250758268293179
0
0
0
0
0
0
0.003997822724150057
0
0
0
0
0
0
0
0
0
0
0
-0.08739150794738455
-0.019589309542486725
-0.0056383698454115115
0.0428961503671933
-0.022336641322001586
-0.0762917108670434
-0.06501542792155555
-0.12598902405767956
-0.1217363108148789
-0.12218240880650381
-0.057047512251676334
-0.05847322400942701
-0.08555637736826417
-0.06367363351796242
-0.13591397160561638
-0.022412962093650287
-0.15487166452976273
0.02546985195450642
-0.2011493946636197
0.01864083141155869
-0.1705359047931333
-0.15687101307576465
0.0019210264033795096
-0.1397472580483264
0.0032992484303811386
-0.08591115710591947
-0.15497072681809454
-0.12443943335988672
-0.1146700306326124
-0.1454029365850028
-0.08589385758802502
-0.137387372319936
-0.06163298935740657
-0.04546153244200926
-0.13298458961736245
-0.061655944432413866
-0.006409377204889846
-0.10922858718857159
-0.1418636393874291
-0.14502323823881766
-0.05292158926716936
-0.16504887715386649
-0.181487111721626
0.04041505203789642
-0.19137801635132287
-0.17332895405090196
0.0851646915253663
-0.1844853445637092
-0.17682510114977246
-0.10226852331461833
-0.17943700081309769
0.015357574292413691
-0.1674788458336818
-0.018223615795584583
-0.05519731262365743
-0.1597868235917325
-0.16087188103096128
-0.13135998418006387
-0.10467051041202662
-0.13751008179186644
-0.08728964905849607
-0.09983401227735349
-0.11408484498791958
-0.08938440741936188
-0.11646338864344581
-0.08630369953730478
-0.06435194041399235
-0.049500123082904725
-0.08843225647016072
-0.06443496624538085
-0.1033713294508069
-0.14897348911543473
-0.2028818206943844
-0.16696734643756972
-0.00500614271350923
-0.1433318957412096
-0.19557044500296217
-0.1439805199555684
0.06318823115819588
-0.13597833115361094
-0.20851575156078683
-0.12027675369342415
0.06035069871617821
-0.14028250067898881
-0.15872871769118116
-0.07339860034413564
-0.16954965936292957
-0.15875407527531762
-0.015661448266105656
-0.12799406527043364
-0.0515813293094085
-0.04684586789693232
-0.14152484642621357
-0.16798105305166733
-0.14634094245204562
-0.10438018821203628
-0.12786776026867178
-0.14899960629812367
-0.1519016601419754
-0.0969769983223152
-0.10518363920730824
-0.16121949143972172
-0.09908227275512378
-0.07458217775966024
-0.09678491541868954
-0.1067868788718827
-0.041732289053436296
-0.083477101037083
-0.06028155762432675
-0.03637879021382672
-0.06496948637568002
-0.12104154983245112
-0.1960802413896751
-0.1738305598884392
-0.15199300561018533
0.024628375963068477
-0.13412973772483608
-0.2096288126253861
-0.17767755950365427
-0.11082683431485942
0.07681212082508887
-0.17436874440937886
-0.22769610988198877
-0.17989176698440834
-0.05614935049133426
0.05324066830690282
-0.16159740952849735
-0.2343008383799032
-0.13531921380730397
-0.15544162134595207
-0.17202931763397264
0.002287222002835466
-0.16165351920825308
-0.07198801097548692
-0.08047651340842087
-0.15000362934587888
-0.13609162739990457
-0.2292643686897283
-0.1579905212706868
-0.09502913830005032
-0.06939456011486465
-0.18225164545297814
-0.15048069127223765
-0.12409532751684334
-0.13141520000215456
-0.1187202867091846
-0.16024659789470572
-0.11549215184136126
-0.1409881760647376
-0.10570040091849629
-0.16820161918997367
-0.0957241173903327
-0.11265120686012815
-0.04942062082863926
-0.04765612867926087
-0.09197798289651482
-0.11698856111195048
-0.21516084128065935
-0.2541068013337365
-0.13040776752483255
-0.08053363162715411
-0.011998380578600925
-0.1176408588216256
-0.23766459760611894
-0.2299685819839726
-0.10123291988935208
-0.026215680016777137
0.042724225823887796
-0.13805117467948314
-0.22399567338142803
-0.18677166862492622
-0.04161066467889841
0.0651966902238268
-0.18442316735143105
-0.2143427806804369
-0.11999321750463772
-0.169097971959553
-0.21908301028720992
0.050379877775902505
-0.17797861843346532
-0.015066102843188359
-0.085044624251732
-0.033015199846454395
-0.1638645510302141
-0.17726949556110408
-0.2527996630409299
-0.15525883332783594
-0.11679277430981842
-0.11876285234900404
-0.16192950034028716
-0.14054117223794518
-0.2019264511352565
-0.0930099028782549
-0.0730610680460775
-0.156486193941106
-0.15587398259488347
-0.10757275803033149
-0.1450544482111059
-0.12541260995493342
-0.07954621165011024
-0.10944146834330444
-0.06719349031439299
-0.07493987709971538
-0.0718726498483304
-0.1447347607957622
-0.20047568886595438
-0.25779080950302397
-0.13209292339616144
-0.13009263100973104
-0.048519433661890606
-0.01935010320444898
-0.11807926381499186
-0.22029502870833625
-0.19763620215572839
-0.1064085084329625
-0.04943279940553968
0.042188958124578464
-0.08658365227017552
-0.2543775073628772
-0.1687730925919864
-0.05865027513826004
0.059044439772818404
-0.13872380346754468
-0.2234157646809178
-0.10823008635098458
-0.19176229052592578
-0.11582482007465934
0.0563167304438972
-0.08814893702782806
0.005861629870785301
-0.04087149394773137
-0.05263937208233557
-0.15105195065955443
-0.15889968492019071
-0.21515012147169824
-0.13673772229427164
-0.12267179745676093
-0.1164491018899098
-0.11390126742784208
-0.19069808498273963
-0.1557759138062672
-0.0679646320818455
-0.14062401443906894
-0.17728072794888441
-0.1327642210014893
-0.08820074311790022
-0.12204857134688056
-0.08850812721331079
-0.03942742282963229
-0.05771218837093039
-0.04850449657469793
-0.05195389058592159
-0.12808243279878748
-0.19071230121050065
-0.22744377579089023
-0.12357526598123249
-0.10130680107741698
-0.02375349242803361
-0.08042517382047241
-0.18816358378496414
-0.1669403941132871
-0.06444673878384684
-0.04493148749976375
-0.09036133269209706
-0.15652213908943177
-0.1361899591871625
-0.0547798633319705
-0.09095300413749635
-0.1618111019545476
-0.09989291601127433
-0.13240972963754252
-0.0794462585921376
-0.08638954077782407
-0.07545723505347944
-0.06189005948016859
-0.1811105953868792
-0.18140995970123533
-0.11277891289241722
-0.10075267111977265
-0.12822591780504103
-0.18486347666412592
-0.1385109019487801
-0.11690485571186053
-0.1125784871818487
-0.10422167627333105
-0.10106173534715983
-0.09355616003927487
-0.12795074619581573
-0.1304954577406797
-0.15994200327889863
-0.1423662921730817
-0.033209071335753675
-0.05127154368600605
-0.09424727543587581
-0.1527656346359486
-0.10929471040898181
-0.015608052362371708
-0.1304543107083225
-0.16210614470688076
-0.045154070218048285
-0.11666166586222725
-0.12911365362191332
-0.099057213708371
-0.061795002177158935
-0.14134935431942408
-0.1860085784466273
-0.15568075166644138
-0.11241340216867342
-0.09942549190469258
-0.16038082518385222
-0.11773116402036916
-0.13485708563706564
-0.14122949273666888
-0.15476940574129602
-0.17975567301199333
-0.0914253443657733
-0.024988014697278665
-0.14338557832389184
-0.13603075121259944
-0.043211187733655704
-0.15882302580943708
-0.06396284390271735
-0.09389495651330133
-0.09905272210922593
-0.12830311030667832
-0.1778379997878661
-0.1135595035566843
-0.14977612280549027
-0.1464675436716979
-0.1690014513524498
-0.13089339950744752
-0.06407278423168795
-0.1619543799050666
-0.04756927400495525
-0.06884551426708423
-0.061895233589463965
-0.11752491064780692
-0.10203864619791266
-0.07702541120150742
-0.051317105727211626
-0.04395779392181856
-0.04985594583908969
0.006541817919182524
</DataArray>
<DataArray type="Float64" Name="v" Format="ascii">
0
0
0
0
0
-2.500145500622044E-4
0
0
-0.0023987847106705647
0
0
-0.0026089197522494033
0
0
-0.0018704468217956708
0
0
-0.002143885150556069
0
0
-0.002505431969231525
0
0
-0.0024780207370036747
0
0
-0.0034874452322298933
0
0
-0.006151709805906846
0
0
0
0
0
0
0
0
0
0
0
0
0
0
0
0
0
0
0
0
0
0
0
0
0
0
0
0
0
0
0
0.004472174569928652
0
0
-0.0036716943626595947
-0.0068713860757971985
0
-0.0019637283019918557
-0.017428933213811042
0
-0.0010196752070208337
-0.03345777291012301
0
-0.029268974740678726
0
-8.373840321698433E-4
0.016031429865518625
0
-9.07986615520526E-4
-0.0011983857366831103
0.01579334148426326
0
-7.168939732841759E-4
-0.04130016972151284
0
-0.0014126397783522286
-0.038742212103228674
0
0
-0.001351127869156868
0
-0.006193509813954429
0
0
-0.001044647180770215
0
0
-0.005402305914710887
0
0
0.0436343052839021
0
0
0.007678131503502547
0
0
-0.012326889635960235
0
0
0.0026697495100127607
0
0
0.02702706564856862
0
0
0
0
0
-0.006313148673791486
0
0.03919699981836234
0
-0.0030505879525676827
-0.021632510338327245
-0.015937242935155253
0
-0.0010220360217029886
-0.018333731158019836
-9.762186218438342E-4
0
-4.470581980992123E-4
-0.03183272746223297
-0.014452952847825976
0
0.04118952085941954
0
-0.06413171485945075
-6.834143310412355E-4
-0.011197018268322749
0
0.0067359253258761805
-6.465498248995682E-4
-4.609757836499368E-6
0.027398215807413237
-0.027386458682405593
0
2.913500132144948E-4
-0.059748020287613
-0.04665282977644213
0
-0.0012140996997360189
-0.02030617190085139
0
0
2.2805989342999078E-5
0
-0.0031212771982265237
0
0.002215977330698034
0
-0.022572679584798874
0
-0.017312402207109497
0
0.010620171071500319
0
0.004324771484180038
0
-0.03209630162811616
0
0.05346818049999722
0
-0.023332219307059757
0
0.011535380266375494
0
0.013069825391307905
0
-0.013758411554330365
0
-0.016585835021558967
0
-0.0054159517025301855
0
0
-0.02568828609992983
0
0
0
0
0.006584609435781857
0
0.012757866183370934
0
-0.0033242635472901165
-0.013284224962286652
0.023546617896446142
0
-7.951490311314205E-4
-0.03627511012660676
0.03799872218910463
0
-3.3067714665976916E-4
-0.03699180630962238
0.015972051271517965
0
0.012098566368487417
0
-0.06134419538886315
-4.8511041764883253E-4
-0.01908042526337061
0
0.012095712783243175
-8.001681821878574E-5
-5.552828073303736E-4
0.027014023214396454
-0.03634845695570091
0
5.387027665584583E-5
-0.02968061611773821
0
-0.022565666656515507
-5.324055640798378E-4
-0.008021066684555371
0
0
-2.3561769823892464E-4
0
0.013684176904738216
0
0.019747624561856678
0
0.011556610089136976
0
-0.03860340521957342
0
-0.0053084733827967225
0
-0.010301852991894678
0
0.019899515472641956
0
0.02960713449501552
0
0.0147842235738766
0
0.013652360077036569
0
-0.004973472059026696
0
0.019997193417558064
0
0
0.015896606991466684
-0.018184485072505193
0
0
-0.039348891730523146
0
0
0
0
-0.040434692886506224
0
0.007944744371436803
0
-0.003983583708617546
0.010059917209361176
-0.00667452288450332
0
-0.0011479786551940444
-0.02898093661378724
0.02547126388707087
0
-3.0288988017897444E-4
0.02482272455208116
-0.01897750593006529
0
-0.004818104503941167
0
0.0015395621786852716
-4.0658866358662336E-4
0.008809954115050068
0
0.03433521693297259
-5.946025140464317E-4
4.2990212422727806E-4
-0.0075663988976035395
0
-0.017209394306667677
-1.9825021092339014E-5
0.003687580368923139
0
-0.01835654642103884
-0.0010861274037110066
-0.022829509741614087
0
0
3.287243366360093E-4
0
0.018984861724427097
0
-0.01467233978536314
0
-0.025265597447164504
0
-0.05770764795924422
0
-0.028269930598858444
0
0.011804308033025878
0
0.02315905082818732
0
0.008531529629911586
0
0.015873759753898417
0
0.09123991827095174
0
0
0.004862492354128555
-0.0010714744552270835
0
0
-0.019977278975568377
-0.03902838435212686
0
0
-0.018803256235669082
0
0
0
0
-0.04503807878405863
0
0.008202079564890635
0
-0.0036310441850025614
-0.03590134184632043
0.02186039861052091
0
-0.0014763952546386478
0.004387728390112599
-8.061113020104415E-4
0
-5.708061148642503E-4
0.006419832905127117
-0.016855290343806725
0
0.0024459778321810834
0
0.009292031766051811
8.409849781997805E-5
0
-0.001757962344943825
0.06356094922547297
-3.015104705345407E-4
2.4128379911645382E-4
0.02621420911672602
0
-0.0024543877698169976
-2.47095622093931E-4
0.048154456361873564
0
8.956622397387018E-4
-7.904537661514219E-4
-0.008942840482913078
0
0
-2.4561991856959016E-4
0
-0.013709943604669999
0
-0.06495132946127226
0
0.01167034020676185
0
-0.05161874698432254
0
-0.02148985372473095
0
0.014826424554168492
0
7.889467019631248E-4
0
0.029006980893575892
0
0
0.02349185281180481
0.08676785858077386
0
0
-0.028110028282157806
0.0062425159986034704
0
0
-0.02943112873422841
-0.011900149269884149
0
0
-0.03062918594494593
0
0
0
0
-0.041105260071988454
0
0.018502393538961045
0
-0.003826157102978858
-0.0770736013771059
-0.010551360672009182
0
-0.0015801692509685317
-0.06743040512160185
0.019969344211178196
0
-3.1502657957677236E-4
-0.027266933378192196
0.010027076360202588
0
0
-0.05961385316701623
0.02080571984631335
-3.3455224156128845E-4
0
0.02705179588370511
0.0780257373508275
-5.834110528281433E-4
-5.808791822278205E-4
0.07155694138178338
0
0.08640324352141791
-3.814826244139457E-4
0.08952794679315047
0
-0.043710632164808645
-6.02535998377368E-4
0.00836590703185727
0
0
2.886753151284571E-4
0
-0.03179084895510876
0
-0.05641777010751519
0
-0.0027537953132528857
0
-0.05762714809906252
0
-0.009653617097167284
0
0.013649998472231915
0
0
-0.004718589986454701
0.032284803613084244
0
0
-0.03464721320493346
0.040323081223943784
0
0
-0.04341961681054552
0.047278236286645604
0
0
-0.03285735594952425
7.347274888241524E-4
0
0
-0.01953858139666641
0
0
0
0
-0.061518924585817654
0
-0.00891416562486481
0
-0.005185315185746023
-0.0997721954215935
0.0069391223765091666
0
-0.00145872611359071
-0.10577231677740075
0.021592669432152448
0
-0.0013955205216123689
-0.0039305520000477165
0
0.021914338492224402
0
-0.05836486289918998
0.002089424200928167
-8.679185269087943E-4
0
0.02873240271263736
0.05338819654113136
-0.0010219129675297267
-0.0010946247529515902
0.06184249646628854
0
0.027202336684182402
-4.792428583858497E-4
0.07463383103824774
0
0.001000840875539682
-0.001881559345586836
0.022041074874822545
0
0
6.486958032304297E-4
0
-0.011060592230557885
0
-0.04554599977866069
0
-0.031423998964818484
0
-0.0032744112134909394
0
0
-0.0106139706622315
0.017631315646178366
0
0
-0.011759760409969034
0.004965073647715185
0
0
-0.047395766225484665
0.018610607001471376
0
0
-0.04445213482762958
0.001989809614294277
0
0
-0.03811720709830046
-0.023470019630592864
0
0
0.020751927552447383
0
0
0
0
-0.08863966366678853
0
-0.01510869833407352
0
-0.008391333627017078
-0.11143239918883137
3.882197942887735E-6
0
-0.004074521632346612
-0.06239350004393973
0
0.029072531568615296
-0.0025511614544354274
-0.027108927873545473
0
0.004245158188049714
0
-0.00941830092497514
0.019087109188965497
-0.002427828636453813
0
0.025375475458173657
0.03381444780171195
-0.0026204065896322996
-0.0024642660132468785
0.06750636166674238
0
0.05373060687463985
-0.002415827115448434
0.06486629861972125
0
0.041583439955187644
-0.0024584958967751166
0.018040922055062192
0
0
0.0018343834009445132
0
0.005512014347686
0
-0.05747298189341097
0
0
-0.03675742227012879
0.021978758284411367
0
0
-0.023633097633416703
0.02228526763800231
0
0
-0.03201632774853805
-0.005382696934145003
0
0
-0.08480276917541295
0.04555019655392232
0
0
-0.058746959359307495
-0.014594105118624577
0
0
-0.006053098777592942
-0.03406186134094338
0
0
0.02882776217971449
0
0
0
0
-0.09785173350567783
0
-0.013851436328697024
0
0
-0.043544013919401124
0
-0.006711734132402838
0
-0.048046639644513084
0
0.013102354187288551
0
-0.015157222455894551
0
-0.018332306549695584
0
0.01061414610547793
-0.0158331722289905
0
0
0.02974997125217645
0.023860783900163145
0
0
0.01332629074092323
0
0.07085195150943807
0
0.03884427102155529
0
0.012799303874916129
0
0.015037147649028563
0
0
0
0
0
-0.03303120878346144
-0.029192406560525675
0
0
-0.016350712841877616
-0.005259452310267586
0
0
-0.0580458489979385
-0.018032180984688114
0
0
-0.0545222020986805
0.01758075204691471
0
0
-0.04290991469662911
-7.237706660552724E-4
0
0
-0.005550295403299959
-0.00636758683507041
0
0
0.005894402023223752
-0.010643197362863684
0
0
0.033895402631707455
0
0
0
0
0
0
0.004912346550895359
0
-0.016130267795083215
0
-0.004353663039381284
0
-0.0010998310313974256
0
3.151519468095833E-4
0
-0.004332695787465633
0
0.004542178183886234
0
0.016562694064086395
0
0.011828535703629732
0
0.06357501956899682
0
0.03509764167324503
0
0.013239402159035352
0
0.04888258443927198
0
0.028776275278940482
0
0.01764035761898813
0
0
0
0
-0.021696941010764845
0
0
-0.026943616355051613
0
-0.007643789902914506
0
-0.024729400059375076
0
-0.009147738592689024
0
-0.06339849279204827
0
0.016689296955929227
0
-0.09565259732921987
0
0.013620740337001508
0
0.01949117247920523
0
-0.015961232665097632
0
-0.014347280410566416
0
-0.013219287884782436
0
0
0
0
0
-0.022226927185097847
0
0.027213872657451673
0
0.0028554629235958647
0
0.017207718789995958
0
-0.027686806007647644
0
0.009902855765505482
0
-0.011759604252108756
0
0.004805325585621843
0
-3.732368595168151E-4
0
0.045723657924855866
0
0.0509424497478257
0
0.03477989715931907
0
0.03160815593252608
0
0
0
0
-0.011249305542138792
0
0
-0.043277191863761326
0
0.008975621672305445
0
-0.02310255930922185
0
0.00830935882388708
0
-0.043514050924769794
0
0.035631970484949406
0
-0.07344029890325103
0
-0.0034193045180456742
0
0.005136810938290828
0
-0.03273532011774335
0
0
0
0
0
-0.011586768716629808
0
0.0043951626620382
0
-0.014675641223729849
0
-0.013999974628065721
0
-0.04301806611167888
0
-0.007716201949120202
0
-0.06197580124141377
0
0.009211235859277076
0
0.005660539018034302
0
0.014718528580864814
0
0.019391389904719225
0
0
0
0
-0.06123208524727939
0
0
-0.02968932678542101
0
-0.011209823783345145
0
-0.045123869202602356
0
-0.03335539497260551
0
-0.008852175422373347
0
0.00837300594912583
0
-0.021634356797498647
0
0.0018428283735746947
0
0
0
0
0
-0.00977148875917986
0
-0.03557921762526686
0
-0.02143076954327588
0
-0.020296318292716494
0
-0.004184102296562963
0
-0.002994563128961874
0
-0.05590118570214276
0
-0.035884039792552495
0
0.0033009757305822226
0
0
0
0
-0.009496101983953757
0
0
-0.023936576950709262
0
-0.024583988204255437
0
-0.0421054569148365
0
-0.0019163650075740759
0
0.018699762944536565
0
-0.017011769461755092
0
0
0
0
0
-0.009545458687996054
0
-0.05227978039074776
0
0.014663253343043326
0
0.005315555095033512
0
-0.00600548773133602
0
-1.5942637289383807E-4
0
-0.015317284325993772
0
0
0
0
-0.004519869766708516
0
0
0.005256159019272359
0
0.011522473820513987
0
-0.01800761179730986
0
-0.020832391035626827
0
0
0
0
0
0.022488399865590494
0
0.022682545570901717
0
0.004270828395593753
0
-0.0037879093220807244
0
0.005741417338002461
0
0
0
0
0.05140483201888336
0
0
0.018125466881255672
0
-9.072224165707006E-4
0
0
0
0
0
-0.023999084207491483
0
0.005336209145687831
0
-0.0047290099921666225
0
0
0
0
0.0384521580847308
0
0
0
0
0
0
-4.1861854835915815E-4
0
0
0
0
0
0
0
0
0
0
0
0.01636060512171754
0.017292118070573733
-0.030974440554262007
0.017031384679628097
0.04732939761691179
-0.0020315444450385665
-0.005570020586708957
-0.04515084020557733
-0.024843342278000887
0.010528325537046516
0.007349149132160671
-0.029391343313697967
-0.016504581738917893
-0.03302577408395798
0.03356661847378117
4.780899687709685E-4
0.06915658393001582
0.03167049685040538
0.011690924487072095
0.026473559889019074
0.0209129960922334
0.002878957099139613
0.0487084723033884
-0.032809850087482384
0.0035404724344905345
-0.004288519342347104
0.003632481768734623
-0.04714433108268498
0.024743105769997675
-0.026139114994961923
0.03971856038690647
0.035755441110781445
0.022610952531208314
0.08059945987221971
0.032928081696190624
-0.0030985089633329688
-0.031863759955879416
-0.048782056416707555
-0.023404135741285973
0.004323266838385963
-0.018519953238526968