<?xml version="1.0" encoding="UTF-8"?>
<VTKFile type="UnstructuredGrid" version="0.1" byte_order="LittleEndian">
<UnstructuredGrid>
<Piece NumberOfPoints="1331" NumberOfCells="6000">
<PointData>
<DataArray type="Float64" Name="u" Format="ascii">
0
0
0
0
0
0.6295190724624796
0
0
0.7627428295036723
0
0
0.7859633240340161
0
0
0.7899165354898282
0
0
0.7898121530021364
0
0
0.7905780023561725
0
0
0.7900535074339993
0
0
0.7807230314342758
0
0
0.6548605142488773
0
0
0
0
0
0
0
0
0
0
0
0
0
0
0
0
0
0
0
0
0
0
0
0
0
0
0
0
0
0
0
-0.19685819621569026
0
0
0.7742349948063653
0.10969328841813657
0
0.9297559401700076
0.24108069215659156
0
0.9559972138385772
0.30225703969960244
0
0.31199921616632414
0
0.9604609350456603
0.30928010313606347
0
0.9608034698211744
0.9607836874501642
0.22981265865434333
0
0.9578353630578461
0.069674355005605
0
0.934346582096797
-0.05301347130894319
0
0
0.8008053802113692
0
-0.15778394575154667
0
0
-0.06434855441129901
0
0
-0.04366112882305648
0
0
-0.037382110453754176
0
0
-0.01848952166584177
0
0
-5.178452768290607E-4
0
0
0.019359382148392282
0
0
-0.00566231731067449
0
0
0
0
0
-0.17460772375790723
0
-0.10077751848465628
0
0.801566459881112
0.13994438393736516
-0.04314123662394231
0
0.9609826968049754
0.2817118040873732
7.610752088159507E-4
0
0.9876270698774264
0.36917254324609
0.028102509455127603
0
0.0017919245071975414
0
0.41898664039492145
0.9921836040507533
-0.05846971143369576
0
0.39303455167769547
0.9919871245195265
0.9922190363582165
0.28488525218203775
-0.10655969451120577
0
0.9882607335269195
0.09871711705775625
-0.0766728170226192
0
0.9641150916490991
-0.03188352638485593
0
0
0.8136248692703004
0
-0.09594267929231613
0
-0.13038396022410795
0
-0.10466664215935272
0
-0.06582510331905535
0
-0.08974083854452021
0
-0.05801465397296004
0
-0.06288575280884594
0
-0.03229568337918628
0
0.003204174331437248
0
-0.012483112637428717
0
5.596178462991887E-4
0
-0.0023309663564188153
0
0.011471772524340916
0
-0.01874922076382279
0
0
-0.025313540696582804
0
0
0
0
-0.1694290653580769
0
-0.15114833206128878
0
0.8055926923102165
0.15438165939245255
-0.13136726341859048
0
0.966485309129851
0.29834896099788294
-0.11918041540250669
0
0.9938553551484137
0.3514480695393712
-0.12817631477961425
0
-0.1248449824109376
0
0.4058410211421995
0.9971928004080018
-0.12192727973922514
0
0.40443056869828437
0.9981445173206639
0.9976868887651199
0.31126952250415935
-0.061609600750070596
0
0.9935023537908362
0.16141488722039987
0
-0.05637222871713956
0.9679973607262317
-0.05404166990464651
0
0
0.81423459767417
0
-0.1305986946943101
0
-0.14357123397115276
0
-0.08987352849583073
0
-0.09878487767273676
0
-0.08143841047026167
0
-0.07839923883607681
0
-0.021458952037992644
0
-0.05256569566665706
0
-0.045987808773927136
0
-0.05042461295118739
0
-0.01854040856602239
0
-0.014731242119016644
0
0
-0.01799068064775455
-8.612535536678769E-4
0
0
0.001330884850441014
0
0
0
0
-0.17487451752535055
0
-0.1272650082749642
0
0.8065243999723305
0.1569329587005965
-0.10316230920671417
0
0.9668274089269899
0.2958577879615267
-0.13666425007189872
0
0.9940126836388105
0.3992053160922335
-0.1644536835129564
0
-0.11113081929918424
0
0.4000070334693289
0.9992102380740864
-0.012041189512574732
0
0.40498587308970907
0.9988770289291219
0.9982816309874903
0.2987233824669439
0
-0.017304871642357392
0.9943337674921087
0.18891971967677237
0
-0.09992154425333101
0.9683997847361033
0.004107665227108028
0
0
0.8143909014813405
0
-0.08946708890408067
0
-0.12130890215171909
0
-0.09826885672130664
0
-0.10070518261613622
0
-0.04866399474427908
0
-0.09172922902665119
0
-0.10183802269229507
0
-0.05705530576053963
0
-0.022826564134993444
0
-0.0417756897211978
0
0
-0.05664678748368467
0.001227136727271771
0
0
-0.05905012079325619
-0.0142969102087166
0
0
-0.004513581801091625
0
0
0
0
-0.16292877902721326
0
-0.10666812578690116
0
0.8070735167519255
0.22902609602467042
-0.12835342154114424
0
0.9664811838572701
0.38232507501721463
-0.08151641944543477
0
0.9934580940976493
0.44867510070576716
-0.06950849729364089
0
-0.04213522745903578
0
0.42443102384111414
0.9977031640745723
0
-0.04487602712379623
0.42854704968625623
0.9982288423887743
0.9978677770476163
0.32184147231902943
0
-0.05097463042165785
0.9935886787977514
0.16722710265472085
0
-0.05469059446702084
0.9674561874854924
-0.036577039567617264
0
0
0.8129773540351338
0
-0.06726568765506745
0
-0.11828084740972396
0
-0.06790009257837924
0
-0.08910485873179087
0
-0.09798593373121962
0
-0.0628353003210773
0
-0.049685674750845815
0
-0.03124531930621065
0
0
-0.07551176796810781
-0.020573623053079207
0
0
-0.10433351985444257
-0.010125359693304449
0
0
-0.014360012340756382
-0.009991130586794685
0
0
0.002697059721647688
0
0
0
0
-0.1672015413895359
0
-0.0953449094345838
0
0.8062971030311806
0.23315084547505896
-0.08416266297797013
0
0.9626622045095251
0.36478751661107894
-0.08311394127320025
0
0.9883922994788942
0.4490412179928764
-0.02420857622930477
0
0
-0.06919720463972913
0.5046414098575057
0.9921760462219407
0
-0.019177733007686885
0.49862250485101006
0.9925480254148815
0.9925337667583825
0.3913794964041403
0
-0.03099392188784003
0.9880304531712861
0.177056835361713
0
-0.030506698502027623
0.9620519303588276
-0.027866218937482524
0
0
0.8088050391629681
0
-0.09905181490628207
0
-0.12027852272249322
0
-0.0890015905549672
0
-0.08434674061432884
0
-0.0430303643706531
0
-0.011426712099977787
0
0
-0.10112024828407068
-0.04684191138225082
0
0
-0.09090846275237069
-0.028038993914626057
0
0
-0.0654047321110842
-0.04044462716307739
0
0
-0.05991388686629009
-0.021675281479776768
0
0
-0.02763052960385159
0
0
0
0
-0.19678224309294545
0
-0.07294483950404353
0
0.7939491213620183
0.15805794175746657
-0.0799939777894727
0
0.9326283172407089
0.3601514192940271
-0.051124108465901236
0
0.9580662176940921
0.43219761319055894
0
-0.05677365160878023
0
-0.06419600444561573
0.4928808822076504
0.9609789541929478
0
-0.06180381502626497
0.4573552031803347
0.9614373558880368
0.9602654154849825
0.34001243421907357
0
-0.03139713423219958
0.9559973472702267
0.19126422712686555
0
-0.016082013061386232
0.9308044665167395
-0.03255274606950453
0
0
0.7813916135631073
0
-0.06477318535641048
0
-0.13311867638265426
0
-0.023116409698986252
0
-0.06776049941723918
0
0
-0.08643037295903694
-0.015505360394616642
0
0
-0.07795881724324681
-0.015537090040194155
0
0
-0.07006483500953704
-0.013166072798883195
0
0
-0.041818634799391734
-0.014594398261758455
0
0
-0.04225719842433592
-0.008225128584377786
0
0
-0.016789338653777335
0
0
0
0
-0.20941460722162028
0
-0.010971807133548346
0
0.6477979818995071
0.15693965788949837
-0.007431579319968092
0
0.7807585284531807
0.30935824097181164
0
0.001812306327106115
0.7902691003651033
0.4036754621347634
0
-0.03947371263917999
0
-0.04746923891629426
0.40326443001117096
0.7904493412569594
0
-0.07026164056878896
0.3525844061115724
0.7908804481600066
0.7899863747041421
0.28208727027487274
0
-0.01336224012167326
0.785861906148894
0.14478431053372368
0
-0.03182906392667172
0.7642520851852942
-0.023652023748109378
0
0
0.6364182358171036
0
-0.006265829347639227
0
-0.16578217481632232
0
0
-0.0390385865303953
-0.08833593610179652
0
0
-0.0673116642708748
-0.029762472820878152
0
0
-0.06906816313006804
-0.033054025215630715
0
0
-0.044579960628919
-0.031057438512802734
0
0
-0.023872068478066073
0.003766693984241075
0
0
-0.0131874922648322
0.022255907407361223
0
0
0.0015275736498732576
0
0
0
0
-0.2193920855732886
0
-0.007534611566016027
0
0
0.11064074224427961
0
-0.025360746047058857
0
0.25135568174882233
0
-0.013466716946578477
0
0.2965217139369463
0
-0.029071307819980834
0
-0.06256633082846963
0.2763683184393591
0
0
-0.029313924647459782
0.2725251950921012
0
0
0.20747067578950776
0
-0.04352367594389897
0
0.12115009259778169
0
-0.06977083347304981
0
-0.061802222918814355
0
0
0
0
0
-0.033993885062489765
-0.12972354536371722
0
0
-0.039267326967024035
-0.024029526951077896
0
0
-0.04978834694344362
-0.023910260291149513
0
0
-0.04881611151781918
-0.04786094391647985
0
0
-0.04873595025385066
-0.040365360856100756
0
0
-0.020138036303102416
-0.025408873239002986
0
0
-0.033278077643988595
0.03903366444536391
0
0
-4.323868318076671E-4
0
0
0
0
0
0
0.017879976130136924
0
-0.11406143449751292
0
-0.009839938914360856
0
-0.03274241712582412
0
-0.023723381402326896
0
0.013958079455888823
0
-0.04167122757517482
0
-0.058315335248776544
0
0.037393092270586854
0
-0.03455197344791828
0
-6.117361003483827E-4
0
-0.04484354032075824
0
-0.08173765334819923
0
-0.07644640625153137
0
-0.09894698775489406
0
0
0
0
0.02686126426124461
0
0
0.0038660938662815982
0
-0.05601048301388183
0
-0.03588181270460599
0
-0.0805883577527413
0
0.0017448209550469135
0
-0.05369710548342846
0
-0.021060747775348845
0
-0.047572285814926875
0
-0.026160118384565213
0
-0.06220354052543108
0
-0.02367891093683856
0
-0.023366248172180294
0
0
0
0
0
0.03219644104638523
0
-0.10227561044708895
0
0.003868729483488408
0
-0.11147998136286856
0
-0.011669060054107725
0
-0.06548309870722686
0
-0.02312546439076728
0
-0.050322940584134106
0
-0.06389006171084227
0
-0.0657960783477281
0
-0.09596299316305501
0
-0.10535570229245876
0
-0.03736530724657913
0
0
0
0
-0.007984704009795092
0
0
0.005901386259327364
0
-0.09721960617313137
0
0.024847328582892177
0
-0.08803816373913766
0
0.0038307955472028222
0
-0.06978258523870105
0
-0.022542443784330915
0
-0.07790897207996134
0
-0.05605400043782407
0
-0.050441379338401086
0
0
0
0
0
-0.016424977168917946
0
-0.14761096419203532
0
-0.003434091213607145
0
-0.1376091613387049
0
-0.03970446447399231
0
-0.13778913912281698
0
0.001321155992016036
0
-0.03073600133627442
0
-0.11284291013701121
0
-0.011115738840643567
0
-0.0962795201299624
0
0
0
0
0.0018020761408623538
0
0
0.014890189956819585
0
-0.11637103601561198
0
-0.01799785136414457
0
-0.10581550755258819
0
-0.01806842265575702
0
-0.09756467939346597
0
-0.025164914708803113
0
0.009874385904397105
0
0
0
0
0
-0.016117302428645897
0
-0.14997241466851682
0
0.007291990455947924
0
-0.12665916639357777
0
-0.027723804242343955
0
-0.09844261108930931
0
0.022269954722066013
0
-0.013518493628036608
0
-0.02241240132061784
0
0
0
0
0.0024479389651271017
0
0
-0.014197979931728272
0
-0.10998660682216728
0
-0.019595425623557438
0
-0.07996491075878409
0
0.00614568857836086
0
-0.011800504081575536
0
0
0
0
0
-0.011795211534131657
0
-0.1066015686235689
0
-0.009606335717530142
0
-0.05555612971431501
0
-1.2100735357344795E-4
0
-0.04235437601848136
0
0.006305510715904599
0
0
0
0
-0.004103580229886537
0
0
-0.015594316134539541
0
-0.051405186417115584
0
0.01660780298607865
0
-0.03418434848700861
0
0
0
0
0
-0.00893092951687871
0
-0.023398995350187426
0
0.007781269304722974
0
-0.025631763928882403
0
-0.02591660426816456
0
0
0
0
-0.005612353896753503
0
0
-0.005966583090164001
0
-0.04191459296654521
0
0
0
0
0
0.00424972610469669
0
-0.0023437735397003616
0
-0.012129605198831475
0
0
0
0
-0.001734667878236771
0
0
0
0
0
0
0.0012214307568929295
0
0
0
0
0
0
0
0
0
0
0
-0.10113999382554512
-0.053961799740341855
-0.0010187125813085026
-0.008813145466573745
-0.0022205719791686417
-0.04516044365470328
-0.0639615206529831
-0.12432137786049602
-0.11322373716636004
-0.0851720835275507
-0.09695468564564387
-0.03345976501605196
-0.03269962069710498
-0.11846216311402442
-0.13318697223390744
-0.0888259939295173
-0.16764655937763673
-0.0472481689965398
-0.1512398440346646
-0.009714467455305069
-0.1891735990126516
-0.18716621252293375
0.018209810954726718
-0.1298475430714626
-0.011259348351581829
-0.08037127930033773
-0.14663093557349208
-0.16889880627946197
-0.14670304481882546
-0.16515244233586468
-0.14061784323866033
-0.1625692642479781
-0.08215100791480018
-0.13504759712457318
-0.09832550156902277
-0.02747356371909401
-0.05484053090379382
-0.10113035024439371
-0.1941063833308724
-0.17245582795216607
-0.05585086746844883
-0.15144093299386527
-0.21006707601669172
-0.004790690549717226
-0.16746191877248462
-0.22157938580780165
0.05844281254286352
-0.19269325957863495
-0.1906518870786821
-0.1203353422784524
-0.15920326284970876
0.03752428742769506
-0.09381674380815802
0.011012985709232585
-0.04709384205983902
-0.19403814652185594
-0.21880458085313673
-0.16142566184097362
-0.18150156740228027
-0.19290860342073216
-0.1878654336633723
-0.13043150336655396
-0.20287312605173613
-0.11241447955574464
-0.11900157770049476
-0.1477782096774938
-0.11356412752946364
-0.0928879394755759
-0.05421991198463182
-0.011585255154561233
-0.04082060340506013
-0.1440131459349208
-0.23706591331406998
-0.21091990965399524
0.0487413345235169
-0.15019909384549124
-0.2617166707623922
-0.16896625541029586
0.11604617407319973
-0.15017838052197063
-0.22716261717721112
-0.1520285311600684
0.1392593626044181
-0.15459130716280003
-0.21354348814843863
-0.15096983933187683
-0.13776592032316778
-0.09278731121557059
0.04942460489623391
-0.054419341803592154
-0.0201659744426213
-0.02860782432558148
-0.16691311390423727
-0.2689020770499369
-0.22346275766021587
-0.1421067824251462
-0.1514967227282549
-0.2581305706347327
-0.16525281069093053
-0.1148251692452081
-0.13159272248519296
-0.21448652319435538
-0.16833667900525284
-0.11196667224833097
-0.14816675391864298
-0.14703301682340786
-0.11269997833800934
-0.05283217048720613
-0.06706282372886728
-0.024737140631890805
-0.029142048119405465
-0.12227341815562869
-0.2339124183940611
-0.29870558513540507
-0.1736959495204654
0.07600669471902803
-0.09902566354411356
-0.24682432730563195
-0.26603130939649705
-0.15673767268209457
0.1716680446209019
-0.10002702486458244
-0.24252582365354766
-0.18429761891111973
-0.11058548154288267
0.1818616379890132
-0.13141147445171533
-0.2286659508752796
-0.1364519328269029
-0.12892617513226576
-0.13832812950171838
0.09676890150181407
-0.06897646715336393
0.07332138722273068
0.023060733220663755
-0.14068831504922838
-0.21460000266135693
-0.25641397267725513
-0.17052260412084938
-0.07553243328406724
-0.1308957315079131
-0.21034913028322796
-0.18429212970288045
-0.1691166090634283
-0.06930196839432175
-0.13942423717949662
-0.14465253922423396
-0.15544058354745657
-0.10592695612891073
-0.14894416389172804
-0.10655521112928094
-0.0939591430091447
-0.04598106336690879
-0.07050128617924646
-0.03364509496193698
-0.07357058927487463
-0.08443386314328148
-0.1621465581800692
-0.27949480472630683
-0.1746680217978747
-0.11513008226460537
0.02512226958779447
-0.03568445001890361
-0.18102202824338495
-0.2624750739411316
-0.1557464528213002
-0.04310329471037147
0.09838817794200903
-0.018333103048396804
-0.2072761287449065
-0.20759689556725036
-0.0998116698793417
0.10585800098475034
-0.06068041325065334
-0.14496681068045095
-0.1538695080635928
-0.11187254908159656
-0.10497978691812077
0.09958476233241992
-0.06530013656672982
0.05092437003416215
-0.0286896312461881
-0.10564751468706018
-0.17706926510022572
-0.1881809520328933
-0.19879166450105845
-0.12029882602443805
-0.0992327156683646
-0.14702367467986388
-0.1811287597176362
-0.20315655209227812
-0.16930951339833863
-0.07906355044641439
-0.13353146381888029
-0.14903948581614027
-0.1746920299497834
-0.060205433999245106
-0.05661027135612028
-0.12324371177316011
-0.06518099023978018
-0.0438823903210881
-0.055377020408386324
-0.018028876153855625
-0.13817984029065222
-0.0813034680278344
-0.13737552117112897
-0.18920886443365104
-0.15060991903944299
-0.11805622934766415
-0.0585187877928249
-0.053326614745092975
-0.05829257819113847
-0.16018451698858815
-0.20900112364741294
-0.15604958389795873
-0.050389935316360164
0.02200310548831241
-0.0743308365292157
-0.1586293600173759
-0.1323304297695667
-0.10437176627389083
0.07721860753070042
-0.09296512903907288
-0.14418465774382436
-0.09494709557272608
-0.09984329970024515
-0.10825051370236943
0.04271869029379596
-0.09891791069365112
-0.04672223487919424
-0.09213065233050205
-0.09208574573310385
-0.12315018048494142
-0.16730326383259453
-0.20247005031581722
-0.08659787624476124
-0.0930195988593918
-0.08084503338104108
-0.17584312430658097
-0.19735315894610092
-0.10737410899709571
-0.07445555957480508
-0.1017839158207265
-0.17224576114414913
-0.14058045330751587
-0.03084879837259646
-0.08122647901957065
-0.09203683530787471
-0.054860257140888775
-0.030234169812282146
-0.029117072716709925
0.016680668031751347
-0.10161610117580631
-0.10261403982118139
-0.16934652360203717
-0.152869456260741
-0.0715983085607068
-0.053234747699545996
-0.09500419663282676
-0.18472749159527868
-0.17883028840193435
-0.15138397708553686
-0.03927566557815673
-0.1001712859312686
-0.18383508990217132
-0.1491947601709471
-0.09007375693868937
-0.12115739955963235
-0.16478310871606092
-0.10113941386019666
-0.11238656452778799
-0.13022289840458334
-0.14318624661273752
-0.056136050510630774
-0.08324139527915332
-0.1702996074578259
-0.16324874069895412
-0.11735343728809704
-0.10509895490055769
-0.17734481435211003
-0.1964720869134826
-0.08299856779707708
-0.10797226784941616
-0.14529577683208791
-0.07932337025149017
-0.05090363174488232
-0.06490401716301643
0.004528245097090222
-0.13583282170108413
-0.20284556880666985
-0.14320623283562461
-0.0725224054582671
1.9041416446044916E-4
-0.20630788424057686
-0.1986792829184951
-0.14831180161960497
-0.04702296440151857
-0.17436746786695945
-0.171535885462346
-0.10992476433583098
-0.11686336432983939
-0.1218570119648721
-0.14261650311757354
-0.06157350081658882
-0.12352846655255471
-0.14766122913838273
-0.127378062229655
-0.09066037342316174
-0.14020790057894153
-0.11226788635257455
-0.06150323791386906
-0.06135717027392767
-0.007316383125933387
-0.17648112691959728
-0.1746112365336142
-0.09806476560526727
-0.03632611741317968
-0.20232456951196473
-0.1371810433737983
-0.06672884608934514
-0.1343424908394494
-0.04685580293490077
-0.049235147697483946
-0.05911985574350539
-0.12566755738194638
-0.1392015166165549
-0.08928298226270236
-0.07020467070807969
-0.007431977053920988
-0.11571769723618801
-0.10832827598860105
-0.026977625683613737
-0.051494149497737146
-0.07996707159096393
-0.004006278529090111
-0.09748243412134346
-0.040356676378890295
-0.011806009639855728
-0.04268699677540667
-0.05083593601999972
-0.021315753380063533
0.002438064719443611
-0.009363993124510665
</DataArray>
<DataArray type="Float64" Name="v" Format="ascii">
0
0
0
0
0
-3.5270165336868156E-4
0
0
-0.0022769244280471347
0
0
-0.002474015801816831
0
0
-0.0026271011693793337
0
0
-0.002367483044725224
0
0
-0.002287862072703085
0
0
-0.002262330144570689
0
0
-0.0036995627429941436
0
0
-0.006288778170412997
0
0
0
0
0
0
0
0
0
0
0
0
0
0
0
0
0
0
0
0
0
0
0
0
0
0
0
0
0
0
0
0.004591551603188874
0
0
-0.0032913482687809575
0.007631225259140627
0
-0.0018093848939073655
-0.00836353549155469
0
-0.001063525442259036
-0.018819449305012278
0
0.00940593513522933
0
-8.603161679592384E-4
-0.0023764414895200577
0
-8.777867312320201E-4
-8.757965098596341E-4
-0.01747946143421814
0
-9.296586244135226E-4
-0.03384054672954014
0
-0.001553277741140346
-0.045096509752852836
0
0
-0.0014734329391461207
0
-0.008793829161065867
0
0
0.004054859787158467
0
0
-0.01905295550452984
0
0
-0.0031122905320257054
0
0
0.02065771906979807
0
0
0.012945331635377068
0
0
0.008255776299233788
0
0
-0.028554662927230665
0
0
0
0
0
0.02388577533228876
0
0.01671386417158292
0
-0.0034577347477366175
0.016365172178242956
0.026940548034544185
0
-0.0015955547943501886
0.015219099383982913
0.018790823051998477
0
-1.2656603872254017E-4
-0.02408734887077257
0.0061996128908721575
0
-0.009228166774296324
0
0.0015239077326879358
-4.650287440824207E-5
-0.06361630912704432
0
0.007419028317456382
-1.4376513799134718E-4
-2.2693455743494088E-4
-0.03743443260813507
0.0015157096523452781
0
-5.524245154912089E-4
-0.027575646955136326
0.02319513331755331
0
-6.16752924470266E-4
-0.01013283252683716
0
0
1.2852574640876062E-5
0
-0.02564349384816122
0
0.002065722792167823
0
0.016104962679966806
0
0.02787687910574518
0
-2.3649751420677393E-4
0
-0.005620938032621121
0
0.032137645436892424
0
-0.008046556124524514
0
-1.1725963983978166E-4
0
0.027418075254788787
0
0.008097698801441724
0
0.04254576876193236
0
-0.02981378604495129
0
-0.0063104363029067015
0
0
-0.04893191846206211
0
0
0
0
0.034985722813597055
0
-0.022198708642633347
0
-0.00414070351103916
0.0029058174823773457
0.0030419197141442205
0
-0.001356989162255488
0.05034144953102459
0.006097787793326248
0
-4.532527529863525E-4
0.009412204284796187
-0.014036347609490246
0
0.0010859391300350244
0
-0.007466253333669987
-9.233551267038029E-5
-0.049765175037034835
0
-0.008197270770911562
2.1394532246013078E-4
-4.7302019140666135E-4
-0.0471306437621871
-0.003229733728030931
0
-2.7460391726037573E-4
2.41665868289351E-4
0
0.030922071071468344
-7.732652369095246E-4
0.014988209564755842
0
0
2.3179053979379725E-4
0
0.0256619760170379
0
1.348526027072789E-4
0
0.03307892233092601
0
-0.035832025986604614
0
0.010873004600422372
0
0.0018554840857006015
0
-0.0010170162425242049
0
0.005118310090567974
0
-0.00921994177765814
0
6.362877168453432E-4
0
0.011527680139706653
0
0.023952879969245108
0
0
-0.060201592896145885
-0.02377615932595838
0
0
-0.05938655464486938
0
0
0
0
0.020465617581803194
0
0.03255862747279151
0
-0.0038416082636123345
-0.0098460431157624
0.006223209188022365
0
-0.0013129056964099638
0.06849840586479787
0.0061245869765436224
0
2.9024873732712932E-5
0.018371452995069527
0.012313849988862204
0
0.014150065693565137
0
0.01993090815915882
9.65691669306709E-5
0.028244143930045183
0
0.0017519508289857591
-4.278163229456097E-4
6.05307158928309E-4
-0.003365567443284052
0
0.04472011910451757
-4.2503190526826706E-4
-0.009594953847919111
0
0.017370923632664143
-8.746745129384581E-4
0.029760093477173375
0
0
-2.1066240778541166E-4
0
0.025409670387291024
0
0.010088615644165464
0
0.002828499527642246
0
-0.0584855300687124
0
0.016321837813188408
0
-0.022213611891628914
0
-0.0423739521058828
0
-0.06308663922699138
0
-0.014407803571987692
0
0.010345091268287178
0
0
-0.013049855434258939
-0.023606796851048283
0
0
-0.07694678230417608
-0.03317680062025852
0
0
-0.04841288684421174
0
0
0
0
-0.0021301531702272026
0
0.02301680609276795
0
-0.0037844910431990147
-0.0011352818680206015
-0.005291727130957589
0
-0.001348284576002688
0.04065576837972316
0.0019896007212717747
0
-7.011861584608291E-4
0.03842687647949083
-0.024256636666374013
0
0.004578860862619673
0
0.01820218461622929
-2.9869322989038382E-5
0
-0.002967984226682459
-8.10576474219189E-4
3.776894948608913E-4
2.5011653959385505E-4
0.030666210008837846
0
0.026072190248601038
1.578630374815442E-4
0.02367633982369847
0
0.04244734128695072
-9.749899213913646E-4
0.021704814008312992
0
0
-2.7345601383141295E-4
0
-0.028522378593706658
0
-0.0030223969657507256
0
-0.020617719810496923
0
-0.04149814737986446
0
0.008946752042735427
0
-0.05045139331605087
0
-0.026855706895473296
0
-0.035293767549558895
0
0
0.002331168166529139
-0.01352856861773035
0
0
0.007629051445832895
-0.06798169911687463
0
0
-0.05788774087997731
-0.02222443043969551
0
0
-0.0011689984446847897
0
0
0
0
-0.025071531621252082
0
-0.02972065165096342
0
-0.0035289398000102074
0.016649995020674952
-0.003509806856593352
0
-0.0014505189757853187
-0.005803999202717263
0.009284909280069755
0
-1.8334305647422743E-4
0.014743272719835719
0.00824790218025809
0
0
0.012812759724544024
0.02351503197842642
1.9093256468749617E-4
0
0.02766166820269926
-0.005374757558890928
3.0085123469978037E-4
-1.6579264251427966E-4
0.029428162665716465
0
0.04603224398272129
7.033653066392235E-5
0.018604463937321125
0
0.016160696017660344
-7.850607763603342E-4
0.010588846409937654
0
0
-3.929732750670412E-5
0
-0.029809294486641384
0
0.015227469763910874
0
3.2243333409513633E-4
0
-0.05150009459688762
0
0.013167341245075443
0
-0.02884948177018228
0
0
-0.015625082367213827
-0.018901987274066796
0
0
0.022487116309408986
-0.0012481710059075448
0
0
-0.04136826458978373
-0.08627952407363317
0
0
-0.08377405043539121
0.005048273233596371
0
0
-0.013793596968635503
0
0
0
0
-0.027902508776994555
0
0.0014691320414061241
0
-0.004773402570251534
-0.0027318100918551497
-0.017629977482444995
0
-0.0017605479706733313
-8.030344926819831E-4
-0.010243158457157042
0
-0.0011443981103705437
0.00793705667703499
0
0.012168097012772402
0
0.02627376357268331
0.027744344392921283
-9.802399098653176E-4
0
0.037664017192920445
0.025743647468038183
-5.129333371738939E-4
-9.367894834597894E-4
0.025680380708467048
0
0.05918761813872984
-8.085583920409441E-4
0.008201446354414258
0
-2.7055175612864635E-4
-0.0013917872699706158
0.021858502327794353
0
0
3.9086911059474806E-4
0
0.014023928751691455
0
6.848327146230306E-4
0
-0.019673005681767376
0
-0.02307197582625208
0
0
0.0136527718829463
5.658008135167885E-4
0
0
-0.02406893473481368
0.024674047710658
0
0
0.0225840375388922
-0.020648645159986725
0
0
-0.04515384263526192
-0.06794983814845336
0
0
-0.044322514802634376
-0.03206161034784782
0
0
-0.031180513676277572
0
0
0
0
-0.09106706575667144
0
0.02453312507563278
0
-0.008034211603673264
-0.008550186071331846
0.012783293242652045
0
-0.004039732638372115
-0.03468058180925674
0
0.006097777636662018
-0.002366264538562971
-0.007827728021592094
0
2.5359157840720327E-4
0
0.03315617948457409
0.021705772933527892
-0.0028417900440135158
0
0.05292856396513492
0.012997798722541367
-0.0028320511788567475
-0.0025817964878940497
0.02518342001561606
0
0.05649799085572867
-0.0026421357234920335
0.028331384858616377
0
0.020714095728525898
-0.002046078340389768
0.03265565284730743
0
0
0.00199394988439986
0
0.01232036170872402
0
-0.05299754075874751
0
0
0.023488609421441927
-0.01236163624145196
0
0
-0.0016366894333822758
0.002232143500521713
0
0
-8.016083219315781E-5
0.04855416899126144
0
0
0.003811862553293031
-0.006359108303939505
0
0
-0.07612865863081451
-0.046207174341819084
0
0
-0.005848651141329858
-0.027175290797926247
0
0
0.003907119309543682
0
0
0
0
-0.09974703895596697
0
0.00747954077163681
0
0
-0.02841081832396383
0
0.08463173103930012
0
-0.024129734833777797
0
0.04653332785694134
0
-0.03010251999658738
0
0.011771075612438545
0
0.005640553473300985
-0.009304733361475082
0
0
0.08357137676855242
0.012335917568148329
0
0
0.017179644407779287
0
0.013174496570389473
0
0.02235357994384994
0
0.06467662495108241
0
0.042978763917407764
0
0
0
0
0
0.03290428896722398
-0.04725219156636665
0
0
0.028410156335921328
-0.002449825730744482
0
0
-0.0134582225093845
-0.012867584809921525
0
0
-0.0031118961136568928
0.01890798304178076
0
0
-0.05547602745374661
-0.01813831860746291
0
0
-0.028136334142319874
9.483602289401778E-4
0
0
0.012420295346070032
0.009663454654474128
0
0
0.007532609385393878
0
0
0
0
0
0
0.047645934178411224
0
-0.047085744884434955
0
0.04280075949669194
0
0.014139074867405529
0
0.03563401037653805
0
0.020535822338607176
0
-0.004316424362189596
0
0.01662555079742711
0
-0.02446293904075141
0
0.024355827534745637
0
0.027230204377660147
0
0.03612071598862517
0
0.021984908156103596
0
0.029656283366614754
0
0.024760682086877473
0
0
0
0
0.061500261167312546
0
0
0.02969767285960793
0
-0.012094691822752635
0
0.03170783123911058
0
-0.013859338451884522
0
-0.005412832425763347
0
0.01313975634289364
0
-3.348529559831278E-4
0
0.0026384368614332087
0
-0.0023462617939082274
0
-0.01741006950000075
0
0.011979948648772077
0
0.01670081341533258
0
0
0
0
0
0.028244193295601207
0
-0.011876679202032689
0
0.03322891622383605
0
-0.013251751475659957
0
0.010871079985116328
0
0.018663822392309962
0
-0.004640293917185747
0
0.05880170650248167
0
0.009728768695473846
0
-0.001829746069679928
0
0.030913640299203255
0
-0.011284083246683736
0
0.01421624687883037
0
0
0
0
0.06555331348573563
0
0
0.009146412928697419
0
0.007502076354359345
0
0.0025382967089042237
0
0.02377753667567924
0
0.0091287298816817
0
0.0067394617909314605
0
0.0033944086901602374
0
-0.04497921445705136
0
-0.01824137067601583
0
-0.03326288120516741
0
0
0
0
0
0.01152815250272838
0
-6.556031749554836E-4
0
0.03555358511007653
0
0.01892819854405847
0
0.0033601792987774937
0
0.009767205638249598
0
-9.917230900016666E-4
0
0.0319855710450955
0
0.010076628339549589
0
1.4813583543695765E-4
0
-0.014006605833013738
0
0
0
0
0.04713446901981797
0
0
-0.04600442808764618
0
0.007871878713002848
0
-0.048346428316454054
0
-0.0021255336388163438
0
-0.012023744686409465
0
-0.028516170802314462
0
0.018949186465521
0
-0.014405479923705911
0
0
0
0
0
0.008143375468384314
0
-0.03689817538989936
0
-1.7096483467399267E-4
0
-0.002643353627522051
0
0.061988623277782484
0
0.023648710415419046
0
0.013610557932061416
0
0.024346370305523297
0
-6.214529499026611E-4
0
0
0
0
-0.007187625098829695
0
0
-0.08188356615194953
0
1.6388479092780472E-5
0
-0.05179396616254763
0
0.02531357049468329
0
0.002519667791184212
0
-0.008285219614838357
0
0
0
0
0
0.0084816772626961
0
-0.012869110240897826
0
0.03188405857196553
0
-0.018519749519336434
0
0.05395868521404278
0
0.007536565427466527
0
0.017440259808751354
0
0
0
0
-0.0464775205209256
0
0
-0.02904378167717091
0
-0.021823042998639644
0
-0.04288305286966068
0
-0.021790039641195316
0
0
0
0
0
-8.348693697735457E-4
0
-0.014669929523422607
0
0.021829879220939766
0
0.0018990512028120184
0
0.007839195131897576
0
0
0
0
-0.0021508750600904383
0
0
-0.005363601063004388
0
-0.02440388383102776
0
0
0
0
0
-0.019562943827567462
0
-0.008594860467283054
0
-0.0018528891698937529
0
0
0
0
0.009469202720598847
0
0
0
0
0
0
-1.3672053998786424E-4
0
0
0
0
0
0
0
0
0
0
0
0.02072761229057606
0.03489398265053923
0.013698417637231746
-0.008990583173834006
-0.024449709965662054
-0.03379233710251206
-0.004440376372745113
-0.03498151335992638
-0.003369294425761647
0.02831384324637309
0.017043618978754987
0.010613349493446562
-0.04107483683728774
0.01840316140589821
-0.027581261354306455
0.034166144630374935
-0.03454911711022612
-0.013376697059728769
-0.01387379196791018
-0.01654178622860147
9.910278592505856E-4
-0.02439491075648621
-0.022354813327059145
-0.010615122886164981
-0.03656844799893236
0.017266592996711363
0.03406566642405128
-0.03825548471408249
-0.028471939096322053
-0.020808264599873724
0.02017696715886985
-0.004568375229661804
0.0068300677372652545
-0.009447605737761293
-0.03765014369893061
-0.020526703644475227
-0.06288227261658992
0.010503720780131816
-0.021195618215041064
0.010643836160751229