<?xml version="1.0" encoding="UTF-8"?>
<VTKFile type="UnstructuredGrid" version="0.1" byte_order="LittleEndian">
<UnstructuredGrid>
<Piece NumberOfPoints="1331" NumberOfCells="6000">
<PointData>
<DataArray type="Float64" Name="u" Format="ascii">
0
0
0
0
0
0.6298582650845593
0
0
0.7631368178377237
0
0
0.785526072235397
0
0
0.7903606037935605
0
0
0.7905723810149919
0
0
0.790651023224661
0
0
0.7901405046027009
0
0
0.781106364627495
0
0
0.6551410583220869
0
0
0
0
0
0
0
0
0
0
0
0
0
0
0
0
0
0
0
0
0
0
0
0
0
0
0
0
0
0
0
-0.2218678504856522
0
0
0.7738041561810237
0.08800582997958807
0
0.9291078008483994
0.2117582280873833
0
0.9559619669663922
0.26041903871125177
0
0.2587953216360817
0
0.9610486254439468
0.23744873028508892
0
0.9609228871453085
0.9608147965339152
0.18276414051013748
0
0.9577047936567916
0.08851003675292839
0
0.9338673190590393
-0.04339522667199348
0
0
0.8004258413552191
0
-0.1655653621786932
0
0
-0.10069710327798022
0
0
-0.021141533992284023
0
0
0.02184100351395718
0
0
-0.017755403618910277
0
0
-0.009758688119232785
0
0
-7.611159181469718E-4
0
0
1.5647887423158886E-4
0
0
0
0
0
-0.19210832095129413
0
-0.15446752668614294
0
0.8002107743749215
0.12926652470160882
-0.06829702844440007
0
0.9604576467348966
0.2629927692264635
-0.005676036925279394
0
0.9880937905705753
0.3201039702681834
-0.008385449137550079
0
-0.026768262139031787
0
0.3382615568420002
0.9920263501993508
-0.07343144536268964
0
0.32438946939777846
0.9926421260846028
0.9924602399725848
0.2307027068891581
-0.10247461708133206
0
0.9881893033232741
0.1777938238168453
-0.06991878500985689
0
0.9637329323633046
0.0076253875323109566
0
0
0.8142268569158125
0
-0.12461151134766683
0
-0.14203293453729848
0
-0.07603533596504099
0
-0.11186093316143943
0
-0.0286006843083841
0
-0.030783375472526336
0
8.565737595921919E-4
0
-0.0368456053732146
0
-0.02402429287719686
0
0.0016327079448996303
0
0.0030171025487684545
0
0.013909803060117984
0
-0.01469874377431289
0
0.00893525785659294
0
0
-0.011359557849700412
0
0
0
0
-0.18482324314694043
0
-0.132344287837357
0
0.8055710097403351
0.15089709336702264
-0.10454156482931816
0
0.9663099790399694
0.31867161796450794
-0.10530560421189254
0
0.9929313380539943
0.34846254272167254
-0.1346597252298841
0
-0.1436379511937815
0
0.3676965135438579
0.9981569698546747
-0.10003469481821875
0
0.36162936583460953
0.9984858539125193
0.9981055389891709
0.2931155668548148
-0.04615940400686361
0
0.993607667883703
0.15617354005078174
0
-0.06375913868562932
0.9681182454677076
-0.02827655324319726
0
0
0.8148282585199401
0
-0.1026437510225957
0
-0.16955888345190265
0
-0.07487330917467448
0
-0.08461752257361649
0
-0.042271785604235196
0
-0.015820890886334166
0
7.784105943208536E-4
0
-0.051343731024346084
0
-0.0058930314815754505
0
-0.022390790102437844
0
-0.0013086387802788459
0
-0.011596651547824388
0
0
-0.032598627399343376
-0.015480208040606071
0
0
0.0038582476702930433
0
0
0
0
-0.17460306831549344
0
-0.1280841113510084
0
0.806645815037898
0.14375932467805394
-0.12878796710638254
0
0.9668332393181452
0.3207280975207913
-0.13011751437043986
0
0.9944193293731841
0.38060257973255585
-0.12699784573932296
0
-0.07098333849628836
0
0.38285001133080265
0.9990521867562988
-0.02568280623091056
0
0.3990568999917031
0.9991335812304617
0.9986595804053623
0.2865080716243742
0
-0.06103079589518686
0.9940365193206447
0.15605160344040583
0
-0.06667558381947586
0.9682593767578109
-0.045448060716971835
0
0
0.8141606337414301
0
-0.1345203303771734
0
-0.14778679379326395
0
-0.06045012535498561
0
-0.09361933184027428
0
-0.032444122906928136
0
-0.04475672368920714
0
-0.02190908190152141
0
-0.0335357889571477
0
-0.029681587743940262
0
-0.006048038856516836
0
0
-0.042575276830698734
-0.020046012902590168
0
0
-0.006887988727280415
-0.014165700810010414
0
0
0.0018715433081591133
0
0
0
0
-0.1851813609440419
0
-0.12493149545689063
0
0.8062903376804728
0.17781419450260713
-0.0896801936809914
0
0.9667734295596909
0.2802323111086214
-0.03582730236080046
0
0.9934960620895397
0.3712104769019238
-0.03482806016163476
0
-0.005947664045400685
0
0.45539118639217163
0.99745209282222
0
-0.0666718663824568
0.402133565701029
0.9985555110258436
0.9981430453072028
0.3175871811146987
0
-0.07368570986238047
0.9928118669064362
0.14776970894617095
0
-0.048563083360426244
0.9676115348856249
-0.03009897248795679
0
0
0.8135999703487032
0
-0.07733648007774739
0
-0.14736679209033407
0
-0.0681628297961508
0
-0.0788846690258904
0
-0.03865128244478652
0
-0.0397949114789179
0
-0.034650120907496716
0
-0.06015710965644733
0
0
-0.08460911965954108
-0.0023683360423306936
0
0
-0.05497945663715023
0.016121887358675133
0
0
-0.021864103247426284
-0.029276935245789813
0
0
-0.006084455097640729
0
0
0
0
-0.1582608910633324
0
-0.070587510131971
0
0.8064261509546872
0.16551050340316265
-0.07682399068754985
0
0.9630450548043387
0.28754480033055985
-0.0641354399197087
0
0.9882255099229594
0.3664102129798376
-0.006467033319110443
0
0
-0.029071550216093384
0.40496106892195466
0.9927090179415269
0
-0.014404796802829281
0.3562112906952138
0.993025684971583
0.9918219016749675
0.33064233716328384
0
-0.05115157204908225
0.9876739155641162
0.17923687384019493
0
-0.0850958323778897
0.9619366970628183
0.01044062452581182
0
0
0.8083763739878774
0
-0.06858406449208469
0
-0.13259883189728627
0
-0.0409081904797641
0
-0.08218057587505222
0
-0.03948894035637229
0
-0.07267170102277665
0
0
-0.06851676495228849
-0.045489737250233066
0
0
-0.06642899021424033
-0.0033046997761280593
0
0
-0.024425663296373034
-0.02661063047661724
0
0
0.0046379803661446535
-0.03212233010502153
0
0
-0.01267784808909226
0
0
0
0
-0.1981193495749419
0
-0.04421510493866551
0
0.7937618040694773
0.10912254334313186
-0.06517757680615095
0
0.9326494446073338
0.23879755353209484
-0.030484204195050074
0
0.9586194378688452
0.3466987695910422
0
0.02015962721953336
0
-0.058696277904259
0.35462820436005243
0.9612749623612705
0
-0.03533100417049025
0.3380244804710566
0.9614800863233696
0.9603929305991911
0.319996282492749
0
-0.043648602196393556
0.9558825834642212
0.2008935122449592
0
-0.06148239576169506
0.9309548996929528
8.35231012613746E-4
0
0
0.7813050309907111
0
-0.003813944705812146
0
-0.13110608005819244
0
-0.024509869200337944
0
-0.09755587555046735
0
0
-0.06527560166254404
-0.06950635953044187
0
0
-0.07447906252536113
-0.044744464762067386
0
0
-0.054474332960249
-0.025596206036158527
0
0
-0.005049104597846996
-0.029315464386950537
0
0
-0.03004232386572928
0.014338754648058323
0
0
-0.008305765195352652
0
0
0
0
-0.21438315487968043
0
-6.143931138399113E-4
0
0.6475372369785097
0.1088709808200329
-0.039080400840003665
0
0.7809874578476336
0.2249213529822007
0
-6.886037264458536E-5
0.7906800150551562
0.31290937257756996
0
0.002777672926222198
0
-0.04404395535583382
0.35514316488772474
0.7911481264429597
0
-0.041839472970093466
0.3838936344185317
0.7904991879835878
0.7895783377571436
0.3304027026954683
0
-0.06785669260190212
0.786129445962363
0.1689618069525207
0
-0.07991488733946689
0.7641365646260881
-0.04800100065410059
0
0
0.6359050207972697
0
0.019970682216956356
0
-0.1377987220166198
0
0
-0.025772011258212643
-0.08150767331372571
0
0
-0.045597160773939244
-0.04272436185861819
0
0
-0.0366020808522718
-0.0377440402227931
0
0
-0.0402927532537749
-0.049648220424708754
0
0
-0.020148113100465163
-0.034891346073926
0
0
0.003525982843472317
0.027588281829529212
0
0
-0.011164830664090434
0
0
0
0
-0.20568808664231145
0
0.025342925977282823
0
0
0.07472186563406756
0
-0.012393779054885956
0
0.20957934973653988
0
-0.043723325528381624
0
0.25139956571263006
0
-0.032801291383566765
0
-0.011790518554849803
0.3043378471503769
0
0
-0.06508719232591159
0.31759357280348516
0
0
0.22815503990073285
0
-0.10748226649391451
0
0.12347493551714094
0
-0.05756238783564364
0
-0.02962966142650913
0
0
0
0
0
0.02294881911687723
-0.12484789903007078
0
0
-0.03364946931900633
-0.08051752826437801
0
0
-0.008289455523118381
-0.062487585596104976
0
0
-0.006214088404996403
-0.016674669152586145
0
0
-0.03170344201167407
-0.019104983942133044
0
0
-0.016287751322545136
0.011956442331259759
0
0
0.021157061807103302
-0.005921709673405161
0
0
-0.022040803689577174
0
0
0
0
0
0
0.02230328148113804
0
-0.0796115229698162
0
0.005499688988985608
0
-0.03217753287259718
0
-0.0259298048566607
0
-0.03853710312174418
0
-0.018940699724897935
0
0.015338373695684413
0
-0.013331343228862908
0
-0.04960764565467393
0
-0.010421265999513677
0
-0.0370875047815299
0
-0.09341893047547872
0
-0.05861517781739748
0
-0.07671478031407747
0
0
0
0
0.0036624687827975324
0
0
-0.060002270837517434
0
-0.1375238542670432
0
-0.013224578309461478
0
-0.10898059367521105
0
-0.005841739146997343
0
-0.07319284505752922
0
-0.01154153625884357
0
-0.0831367490995793
0
0.03185183222260871
0
-0.026893332248192528
0
0.011331710340986255
0
-0.005703320921434096
0
0
0
0
0
0.02270814638373579
0
-0.1770175465370042
0
-0.021037588674744475
0
-0.1495782313914549
0
0.004187007007525344
0
-0.11499137083841422
0
0.010287429108217248
0
-0.002480786236385828
0
-0.11860339155153636
0
-0.0551691015633202
0
-0.11579967651487917
0
-0.1442934301186222
0
-0.07619566389595822
0
0
0
0
-0.06113135444901203
0
0
0.006409752493235905
0
-0.1675789270304341
0
0.00946067111380447
0
-0.07674572381057222
0
0.013774621329723034
0
-0.08222708596362821
0
0.025982252293447233
0
-0.06000781153433891
0
-1.1690607465319923E-4
0
0.009438174625833733
0
0
0
0
0
-0.026607394093990832
0
-0.20733285473746074
0
-0.01025964195243542
0
-0.18127197230798398
0
0.014697585173879818
0
-0.13660728206355785
0
4.246191598128133E-4
0
-0.029131443506203333
0
-0.10111912246002214
0
-0.03637763151894005
0
-0.0812110369314989
0
0
0
0
-0.038370331425684016
0
0
0.02981256484644489
0
-0.10545828219817764
0
0.005255259943749911
0
-0.06726033704301167
0
-7.859432906296325E-4
0
-0.07582942427376739
0
-0.03138051116160481
0
0.008788073983185958
0
0
0
0
0
0.017797587365393608
0
-0.12408206425792716
0
3.4202061085618113E-4
0
-0.0787234840429465
0
0.0011301742279404903
0
-0.08802273397796422
0
0.007070479004882999
0
-0.02474842807553512
0
-0.07145920466070609
0
0
0
0
0.03791143920751669
0
0
-0.0018613044792012538
0
-0.061445804369495705
0
-0.03219529409087251
0
-0.09666558423885262
0
-0.035020798116439024
0
-0.0429658076330618
0
0
0
0
0
-0.013839416590862123
0
-0.07944267552231371
0
-0.03131362487466794
0
-0.041696768182922554
0
0.006454964448715284
0
-0.030782029043509688
0
-0.020005679507525964
0
0
0
0
-0.015258022119517003
0
0
-0.034664419577207596
0
-0.08580043873221531
0
-0.06635682769002312
0
-0.03707775477753527
0
0
0
0
0
-0.022618185455815468
0
-0.07679176880079154
0
-0.03463213871490534
0
-0.04038638027409999
0
-0.020766663018721713
0
0
0
0
-0.014684302865697161
0
0
-0.029911792583195883
0
-0.04081660728424951
0
0
0
0
0
-2.3362020184661587E-4
0
-0.0038085091802938
0
-0.004660392189724027
0
0
0
0
-0.014588684981736174
0
0
0
0
0
0
0.010912409037492056
0
0
0
0
0
0
0
0
0
0
0
-0.1232344621797156
-0.061263751764049974
0.0028364395102872812
-0.006709735561033956
-0.018328708943247937
-0.0926874952820718
-0.11470781425661027
-0.15349341035882927
-0.08025339451112584
-0.07055385075148542
-0.03795941669439587
-0.034591128980676504
-0.023745859665102884
-0.16309460041282564
-0.17357540566409566
-0.07821967986612682
-0.16839457838855806
-0.01140933851727616
-0.15216375174580624
-0.011461869214398068
-0.19968536418592023
-0.17097954280080419
-0.04166722240221879
-0.14454489933972592
-0.05436839166569734
-0.08435089355039714
-0.12435136568083398
-0.1344356687986701
-0.11962318359229367
-0.061573128337751935
-0.05311099875745642
-0.06512431372738826
-0.0960957922621208
-0.049227803463148374
-0.044240321453644434
-0.041344904049232085
-0.05461196099486985
-0.14248473174764922
-0.15431412813399215
-0.13016745008571814
-0.06503909698911109
-0.12338344961108309
-0.15016090871169888
0.0418875769467589
-0.14540609432203933
-0.18972265846827877
0.047951480584440855
-0.14469023002018136
-0.1581540001796272
-0.1280592350453524
-0.16439246865259227
0.01966779544387537
-0.152424613913499
-0.039858152326568856
-0.09273738282404502
-0.15135267155777188
-0.13069883238071198
-0.12886703545138012
-0.1160912111884292
-0.10729149634330809
-0.12247423946772484
-0.10924382702697345
-0.07790175408030685
-0.06976284658930741
-0.09147900432896731
-0.06877112480871854
-0.02618024231853301
-0.04295084441931784
-0.032260191293659875
-0.0999971450078192
-0.12292308807121531
-0.1497778153543389
-0.1503434139854085
-0.14083955488421296
-0.040163274332784986
-0.13099105098336658
-0.18050907815583928
-0.11175448270954201
0.024318098370290527
-0.14821919138144715
-0.2047584464710601
-0.11182244138259219
0.03797499749191071
-0.120153058579286
-0.1839525067377049
-0.07478581311062805
-0.0967704396573506
-0.12790805460398602
0.03736603202857905
-0.1252500532533571
-0.01665966236540362
-0.08054989771596864
-0.13212769930672022
-0.17643026647235824
-0.16636804229091776
-0.16067863597353862
-0.10751097954030531
-0.1529755477680541
-0.14442841033471732
-0.14086006286432703
-0.10388710978100461
-0.08750607663755433
-0.12136801341780905
-0.10017186911646327
-0.06090988561506153
-0.03818849972051566
-0.03741843562951274
-0.05253734821836865
-0.03212419609680595
-0.035954979589787876
-0.09286974130483187
-0.18156400388385044
-0.21165924196825522
-0.19674878861396947
-0.13341728561860414
-0.03283202589431156
-0.19057956430667686
-0.2562546444930777
-0.18448091011973697
-0.08987382694695406
-0.018903240300678577
-0.15405712747991188
-0.23387779398092148
-0.15532336844672476
-0.038839643453993516
0.02284559075124688
-0.13582908908134797
-0.156830149324279
-0.10942383902331963
-0.07429803897888637
-0.1512096716719644
-0.005553397354125868
-0.10244717910326556
-0.05255104030727867
-0.08429285259925351
-0.11558117867364849
-0.17817598979040514
-0.2034646674650711
-0.16009213314512316
-0.17734334542975805
-0.11211727719031868
-0.13060817090505686
-0.17158607831298503
-0.18117954061966746
-0.10772794409720156
-0.10246720091753687
-0.0614586844727491
-0.1142290493479519
-0.09039239482492813
-0.04801293454401923
-0.0815005223726089
-0.08079208709521118
-0.036140380409126587
-0.044917174516220244
-0.038704906047644864
-0.12070640944162825
-0.2018281046410081
-0.1976417144679622
-0.2238651749354054
-0.16086549772239855
-0.09702620808618696
-0.07771180237385165
-0.21758365950009362
-0.25796717380617795
-0.2347242910451192
-0.16548331329106789
-0.04646479067698626
-0.06389405602363273
-0.18022002081559305
-0.23502820806257882
-0.14267157897008534
-0.09880386804389812
-0.015027194978415983
-0.18326688309258335
-0.20464751053617794
-0.10123829877003636
-0.13295428111488508
-0.19864034857584426
-0.04302168433615284
-0.16843054739982655
-0.06554586172954459
-0.09577458150908663
-0.07168591944493903
-0.11498734486441216
-0.16554649523222453
-0.19068815303065756
-0.17518631897742762
-0.1622662051304364
-0.12119801350025185
-0.11529480730276921
-0.18895902522659414
-0.16727844231402467
-0.15128493549316865
-0.024053994482435125
-0.08847917193761251
-0.14574396920054736
-0.10247618289904947
-0.06853574680708478
-0.05728504010922706
-0.0812502931477581
-0.0613784410544474
-0.08139062088274883
-8.578476912992051E-4
-0.10655123267916945
-0.15726892393936212
-0.20979809471562746
-0.21317399492621988
-0.1635077699485875
-0.10604104301744276
-0.031166736813052227
-0.07770241025157619
-0.17950930093651918
-0.2505997014906785
-0.21654479506339372
-0.1504568645577761
-0.08046373558527153
-0.04685343330910937
-0.19697919904557418
-0.2217678890497314
-0.15656512313603443
-0.09344226594687893
0.026187204193145696
-0.24227427413371502
-0.20214924084525754
-0.08449186193073954
-0.1568458848287465
-0.24307753059580248
-0.007376278868187092
-0.20360282989327208
-0.0680148608216
-0.10012825490067995
-0.07657464898206427
-0.10559600352903481
-0.16914974267123736
-0.19876573988357207
-0.17030526079453934
-0.12859586339408272
-0.062138777662273416
-0.09913556099106131
-0.15469874802933467
-0.15889673501648174
-0.08385814281296528
-0.0381862374136904
-0.06860418391584976
-0.15094148208517663
-0.07863062740086767
-0.040797089853157525
-0.0955937887948622
-0.0953481651428844
-0.06895394917082041
-0.02675249582536735
-0.017208022655379133
-0.16089339587707976
-0.24262477312515193
-0.17768784247728672
-0.16621208755897413
-0.1112593211028844
-0.004230583378869817
-0.18094418127515055
-0.25507170935889795
-0.16261327080429677
-0.12485882976428601
-0.09515419962672889
-0.2144144454874208
-0.21801406154103933
-0.14987714002064592
-0.06951955056805458
-0.19040818772082227
-0.19303803676157152
-0.061097729609987474
-0.12946954098510619
-0.22906074330534906
-0.19351580245927433
-0.08697166610034744
-0.05187442487396147
-0.15283897470029736
-0.16678800214526393
-0.1846157706905568
-0.027159467084288073
-0.059063185179896165
-0.14404844902874678
-0.12414572759159419
-0.04378617975458329
-0.05038101787804105
-0.12644875663296865
-0.04381273937232413
-0.05248452604574048
0.02468231744713108
-0.2350171165815975
-0.1638070861812858
-0.12237568640232203
-0.05180047946141884
-0.0704202693160732
-0.23895178603103032
-0.17659882248418587
-0.04531540558109092
0.014152513828942332
-0.2233018419063111
-0.10221530886492329
0.004877879342856894
-0.16571705859419908
-0.01487148035842784
-0.13483638673786655
-0.04635653076810108
-0.06374640445713232
-0.15497121110236337
-0.1611086555883997
-0.015391649857608677
-0.03606839056458936
-0.1313116971503985
-0.020138095362886296
-0.06669694425974047
0.028357782007073767
-0.15320513293907642
-0.12278689053147455
-0.01112047383019671
-0.03740817975574648
-0.14522240223982277
-0.04612177531449898
0.0184115914313666
-0.1015425893643291
0.012762032836928096
-0.055599819017663664
-0.009072969656252872
-0.04100360697199699
-0.10492877840147767
0.0029157156994082598
-0.07656947829144965
-7.324368391506325E-6
-0.07851289250114352
-0.0042411216160805065
-0.004616645335465977
-0.06561452288263571
0.00263617464901369
-0.0320699357612484
0.0018227040937107955
-0.033085013487270776
-0.03520773959435941
-0.006606259407252682
-0.011716431368782393
-0.007976939828206834
-0.032827590074547726
-0.022070062754991574
</DataArray>
<DataArray type="Float64" Name="v" Format="ascii">
0
0
0
0
0
4.0448488307803314E-5
0
0
-0.0017982216975081708
0
0
-0.002024127733738026
0
0
-0.0022320402691913617
0
0
-0.0023238328962396325
0
0
-0.0025418475652560467
0
0
-0.0021030942862760786
0
0
-0.003296218712915994
0
0
-0.006000627319903384
0
0
0
0
0
0
0
0
0
0
0
0
0
0
0
0
0
0
0
0
0
0
0
0
0
0
0
0
0
0
0
0.002234469424890603
0
0
-0.002988153676486825
0.009188545722104098
0
-0.0017101351541032861
0.02859401508387471
0
-0.0011440118524943539
0.01698764731947561
0
0.018803577748865926
0
-8.21470296603216E-4
0.007567899418871235
0
-0.0011086642899750519
-5.904988749990579E-4
-0.04409654521899234
0
-6.265896203717543E-4
-0.017035503107949785
0
-8.299789276156154E-4
-0.03716126056003923
0
0
-0.0017889105463245864
0
-0.0029569912388132964
0
0
0.01535428020360404
0
0
0.050956743198967945
0
0
3.119776749673534E-4
0
0
-0.009000143391525503
0
0
0.01910548966828424
0
0
-0.009297217450244035
0
0
-0.00319358667831597
0
0
0
0
0
0.025263700624706398
0
0.031828791410897256
0
-0.003771850241532384
0.01053109375242784
0.024497713910242344
0
-0.001273896614904216
0.032806385822490076
0.019154360743257656
0
-2.9219095801429767E-4
0.035768053925142144
-0.01916348286654734
0
-0.005083455068007837
0
-0.013643442114087656
-6.100377884469708E-4
0.009592018246192067
0
0.01952644127841356
-6.698170512746392E-6
-5.277755127332383E-4
-0.027933664779332536
-0.02777303407432444
0
-4.718028827257282E-4
-0.01325312994094635
0.0036121529025185295
0
-0.0012043201288488982
-0.0245969436000799
0
0
-3.658038728244893E-5
0
0.011641777246243774
0
0.022512799974282526
0
0.020163088182060643
0
-0.02114266487302169
0
-0.005218905065656514
0
0.022421848467627722
0
-0.032573784315573034
0
0.021245984984948844
0
0.010613563546537504
0
0.013013673094970089
0
0.001962214729790556
0
0.02494984764597973
0
-0.013360606253486102
0
0.03834423710214651
0
0
-0.03978203292783899
0
0
0
0
-0.025403823833335545
0
0.021835425636448958
0
-0.003344926341519424
0.0012307672003976477
-0.012152242046562364
0
-0.0011774278135358912
0.019600180268069436
-0.03275620921945388
0
9.180950358494154E-5
0.014979166154519831
-0.013261842257741997
0
-0.03164692894974464
0
-0.018797589173690784
4.1148679499379825E-4
-0.0016922977743907919
0
-0.011055344840663249
-3.7138104494411923E-4
-5.128289794314213E-4
0.006423968339595281
-0.005811439447815785
0
2.1075595281410853E-4
-0.01370652428300021
0
0.0028746069140789653
-0.0010821171062770204
-0.0307191208105296
0
0
1.993970162190632E-5
0
-0.012628236760069906
0
-0.0036252530683574522
0
-0.021316118590992476
0
-0.021938316761269564
0
-0.02980472470337803
0
0.023219049827198798
0
0.005811369703431139
0
0.03177469294623495
0
-0.015907451483297527
0
-0.03035891614495124
0
-0.0066580958593497434
0
0.02572265119098331
0
0
3.812346850749938E-4
0.052048162205271066
0
0
-0.03582037116246727
0
0
0
0
-0.0283898640620773
0
-0.02722039908663222
0
-0.0034938542988058575
-0.0012543700337747136
-6.199235851874987E-4
0
-0.0011357922164045796
0.038619563033342776
0.007111749227532827
0
1.2284270366104386E-4
-0.0427457012015138
0.03070873975024101
0
0.004958081283476672
0
-0.033806926237578944
-2.2189828231997967E-4
4.334155526599596E-4
0
-0.014149268937124425
2.7031629906346593E-4
8.045922182108899E-5
-0.021488103381465437
0
-0.018040340991986606
4.5435656141258535E-5
0.00871439894650831
0
-0.0058170741342231285
-8.638378195338428E-4
-0.026533856840845346
0
0
-1.2471465599481023E-4
0
-0.03367031332871583
0
0.008208148453901942
0
-0.015565106450499041
0
-0.0010022547349077713
0
-0.02199712628730122
0
-0.029239887109040786
0
0.0015649267727886789
0
0.030945217579643886
0
0.0013644132746603729
0
0.008530096004166274
0
0
0.005538596455641419
0.016800091136555114
0
0
0.007791266107187951
0.04276376685226691
0
0
-0.011252208585138389
0
0
0
0
-0.05324217642514386
0
-0.03955575613277374
0
-0.003350147210939417
0.0039467543782010185
0.0022232332499507387
0
-0.0014684973107694096
0.04126151552168412
0.0034074591392489525
0
-8.821876686480748E-5
-0.041496266193750915
-0.007806268741235874
0
0.029234368342856833
0
-0.012752555391761919
-1.2034998252546056E-4
0
-0.0025079630470108073
-0.021592626612924118
-2.7082653484196694E-4
-2.4664123885390196E-4
-0.0260375198798688
0
0.017793414923479075
-4.0540611920145505E-4
-0.0018187911587564775
0
0.007614682324660578
-0.0010578927824959163
-0.00888592619868308
0
0
3.1740972904665876E-4
0
-0.025717357093222645
0
-0.00502216900052846
0
0.01173053255694021
0
-0.006838539470271531
0
-0.010112393777494287
0
-0.024638466920776873
0
-0.012823127690455828
0
0.031521436424343054
0
0
0.010352046360251275
0.014075567751620685
0
0
0.024937202270968146
0.059589166423864796
0
0
-0.004824586054753958
0.034109181895481726
0
0
-0.014769058207828109
0
0
0
0
-0.06240459829792185
0
-0.004902596294560326
0
-0.003213169032214524
0.001961653855564891
-0.015052861679273685
0
-0.0010494355241094917
0.00956887933231476
-0.02457178823228712
0
1.9495803035061117E-4
-0.05724436554877569
0.01829079865901462
0
0
0.03185560567047944
-0.029559244429699563
-2.7821639908316844E-4
0
0.03609927838683927
-0.013266002271268057
-3.008386244655689E-4
-1.1900943982884333E-4
-0.005852869744399932
0
0.044432212382740845
-3.610014611602282E-4
0.030323576181076627
0
0.003489145740891908
-0.0015290680200100873
0.02607732011046904
0
0
9.79428523598363E-5
0
0.01853839428537042
0
-0.00947556421220924
0
0.017643468338900088
0
-0.029102339761399452
0
-0.01814816200211772
0
-0.015746861081253834
0
0
0.04598265192447573
0.04102996306307563
0
0
-4.211203245453835E-4
0.02459949213397605
0
0
0.0607440547310951
0.06068534545708302
0
0
-0.005124685486076894
0.016074019286284307
0
0
-0.008653269054914148
0
0
0
0
-0.040978746106654855
0
-0.012571453794548956
0
-0.004490644146394543
-0.007392227955245921
-0.023469406937611504
0
-0.0013432691296528622
-0.021850987431978622
-0.006471526696840407
0
-0.001185104568337862
-0.03095329904515209
0
0.01533807140512084
0
-0.0061974876728144454
-0.07692487905654662
-4.000257942025585E-4
0
0.02865777334122799
-0.02840515795971933
-4.5517124871442973E-4
-5.861524514358697E-4
0.03679050334964739
0
0.049623495339192615
-0.0010628231979496574
0.04243964257047453
0
0.029736909777862353
-0.0011265010028880342
0.028218809096606828
0
0
-1.600934227074281E-4
0
-0.00615008751484188
0
-0.013713030596933079
0
0.012460683683441165
0
-0.06894073016763015
0
0
-0.0017235494774607972
0.03594208397823583
0
0
0.01559018090702235
0.018815788185322656
0
0
0.004435237386830783
-0.00281790064742621
0
0
0.04678291854613706
0.012941957734764751
0
0
0.02833240904883935
0.018587792598183005
0
0
-0.0010059184791909174
0
0
0
0
-0.08380623406937454
0
-0.014914547539177944
0
-0.007791035026478253
-0.01893782976479097
-0.0010221891713201386
0
-0.00375587687427073
-0.005516395088186175
0
-0.01910132890178788
-0.0027024764466535077
-0.014507184839014793
0
0.027968871216035123
0
0.00992546331740182
-0.06699993137227118
-0.002045045726916984
0
0.04952326104257428
-0.010035002606718137
-0.002457245393420089
-0.0023284372122223296
0.04723747496295146
0
0.054465115361713695
-0.0029057716262732495
0.060140127819752
0
0.060719132356924936
-0.002070201508765045
0.04819379712168644
0
0
0.0019103788783868569
0
0.033065008144155666
0
-0.03493203896871532
0
0
0.035601798363814836
-0.033123486302502475
0
0
0.03495555115964925
0.012267369917056325
0
0
0.026971076069390906
-0.007104338752451654
0
0
0.037379258540368825
-0.00954968961805782
0
0
0.040888377985727226
-0.0071976963002591795
0
0
0.037736431653147696
0.00195423173394322
0
0
0.030848095660495404
0
0
0
0
-0.07663356581737896
0
-9.291008764494317E-4
0
0
-0.023855337375131222
0
0.014276813288497432
0
0.01380816947920651
0
0.012317279403293656
0
-0.007526236785413983
0
0.00504909278192997
0
0.025830943455856528
-0.05752347102274274
0
0
0.03139261518994208
0.008085689324185926
0
0
-0.012339140186298137
0
0.05059401149368196
0
0.03414665109820191
0
0.05427272471593478
0
0.053500071380653734
0
0
0
0
0
0.033961876479932644
-0.03704490700397189
0
0
0.047771115634521834
-0.019112936224292443
0
0
0.022720165874011825
-0.0012912024643190222
0
0
0.05677472907706218
0.00996391687677514
0
0
0.06661847767234576
-0.02506680714081744
0
0
0.06791565439584947
0.0036299704157649313
0
0
0.035771794453863276
0.0024916862203047045
0
0
0.01554022641901564
0
0
0
0
0
0
0.0026466592754339625
0
-0.03939656562379443
0
-0.008249038232235663
0
0.0014143478835660509
0
0.042606633622683326
0
-0.014428246889661807
0
0.035316064783115136
0
0.03743101346274635
0
-0.015131387225419327
0
0.004736559383676563
0
-0.0037353875935573952
0
0.026295358157403814
0
0.0498813377400161
0
0.03472786188388032
0
0.03170968175559453
0
0
0
0
0.031162337190662342
0
0
0.004708704276567985
0
-6.784595587077404E-4
0
0.004443995938804234
0
-0.028773945752723514
0
0.06494920467490227
0
0.015992558465012574
0
0.05570889571757382
0
-0.03544432409535677
0
0.05150173703428281
0
0.018652929973976103
0
0.01720160649385249
0
-0.0011976997854028328
0
0
0
0
0
-0.011952558425812741
0
0.003090431892004628
0
0.04669389788490122
0
-0.011370301283916829
0
0.03140394836745263
0
-2.8860407513615966E-5
0
0.005763146158877602
0
-0.03521073316968704
0
0.033280916950722404
0
-0.010075343464277716
0
0.021740700308015518
0
0.045057406565371494
0
-0.004012540450952228
0
0
0
0
0.01610405064189933
0
0
-0.013904514011232159
0
-0.022042423610717735
0
0.012318739891201582
0
-0.026819888748921203
0
0.04272506047591252
0
-0.04397453739492693
0
0.033106836886485864
0
0.010482590845532512
0
-0.007116593860128168
0
-0.010503489469934015
0
0
0
0
0
-0.009566158753486258
0
0.025945304967600183
0
0.07217977389481979
0
-0.0011251518161696538
0
-0.005237882531269348
0
0.005033169698438391
0
-0.04057828758632886
0
-0.07170723756918164
0
0.03942978456106217
0
0.00871443652942152
0
0.01473575206197336
0
0
0
0
-0.01159712011313666
0
0
-0.014445171045779524
0
0.015864525866573536
0
0.041358679512055956
0
-0.01537063445093778
0
0.0175026725567002
0
0.017567904320111242
0
-0.009279895829675026
0
0.04821652561649333
0
0
0
0
0
0.013824272003463646
0
-0.014942043402367213
0
0.016863915253848675
0
0.002595828207619758
0
-0.041800228237750765
0
-0.010013169206728125
0
-0.002735426223251397
0
-0.0373178075817051
0
-0.03863896849385007
0
0
0
0
0.030124426313102932
0
0
-0.0051964759457024425
0
9.120983702934658E-4
0
0.02116955545051175
0
0.032464825701245835
0
0.0013287818275754227
0
0.028339910870998773
0
0
0
0
0
0.01962952480139934
0
-0.006412037842632157
0
-0.009449656381220778
0
-0.002118764702565249
0
-0.018331789525189945
0
-0.03307965962114437
0
0.013014336629546541
0
0
0
0
-0.024397807436626267
0
0
-0.04381690012760478
0
-0.002408061882908699
0
-0.014678420842188808
0
0.009788501130918835
0
0
0
0
0
0.013054020695065581
0
0.006161496803200284
0
-0.024946244614184862
0
0.013937317588638478
0
-0.008751126684722424
0
0
0
0
-0.024027632111076346
0
0
-0.016074426470522988
0
-0.002269352776554649
0
0
0
0
0
0.0054965844413932645
0
-0.0069992507242900405
0
-0.040631070965345656
0
0
0
0
-0.027667512725215945
0
0
0
0
0
0
0.014548617265924291
0
0
0
0
0
0
0
0
0
0
0
0.027450896743212102
0.015534064004969152
0.006425048380744925
-0.028169180223907683
-0.03572557249696163
-0.024209185646805867
-0.009780728591946113
0.02277129388349308
0.030288566299566545
-0.04628483373840563
-0.01967747526129844
-0.006180948045982845
0.014063824196144442
0.01307115571101619
0.026503385247877955
-0.003188033870813006
0.038556382690490325
0.01663310620311481
-0.004270765669697197
-0.03154974075584302
-0.021431794264446132
0.026002137280746396
-0.034593059939323705
0.007522416490970099
0.0028601299248923392
0.00811705536225865
-0.007583220335147282
0.021354239628020407
-0.02719872955370717
0.0020135671986961554
-0.05069008659486162
0.007280025625822611
-0.01622634079918928
0.015171337970913192
-0.0013056016443062023
0.00406928156164776
0.05060680273138928
-0.030157566199121248
0.02584504397725211