<?xml version="1.0" encoding="UTF-8"?>
<VTKFile type="UnstructuredGrid" version="0.1" byte_order="LittleEndian">
<UnstructuredGrid>
<Piece NumberOfPoints="1331" NumberOfCells="6000">
<PointData>
<DataArray type="Float64" Name="u" Format="ascii">
0
0
0
0
0
0.6294820748423436
0
0
0.7629531045588606
0
0
0.7864720924764673
0
0
0.7904080637023574
0
0
0.7904650599035768
0
0
0.7909179529709359
0
0
0.7902241450176516
0
0
0.7807551986725834
0
0
0.6550885293308585
0
0
0
0
0
0
0
0
0
0
0
0
0
0
0
0
0
0
0
0
0
0
0
0
0
0
0
0
0
0
0
-0.22704925431065606
0
0
0.7738029887922228
0.10409249243296977
0
0.9297590819994176
0.22031814595767504
0
0.9561389420945633
0.26492250743191614
0
0.29013115660421557
0
0.9603108120717091
0.2690679472864757
0
0.9613880605248776
0.9610442964702598
0.21029469920413044
0
0.957916255675641
0.13073848384569167
0
0.9337310310762864
-0.026601570708179548
0
0
0.8010472730664199
0
-0.16261566407193936
0
0
-0.07686563731473718
0
0
-0.041463053647336386
0
0
-0.01946384476967343
0
0
-0.008755199314625296
0
0
-0.00203812924782461
0
0
0.02257248083542834
0
0
0.056848638788131754
0
0
0
0
0
-0.17694497757332728
0
-0.15713699366864475
0
0.8012473499970033
0.1431576250068417
-0.10335192175456316
0
0.9603158267209976
0.28869801554703417
-0.049314401927113456
0
0.9876611987335141
0.3669404268162116
0.003108063617016778
0
0.019366106703053106
0
0.3745356441607657
0.992523122688956
-0.04774903622361735
0
0.3821742918155148
0.993115753727409
0.9924618681450107
0.3446829596254614
-0.06317605018218055
0
0.9879164635913811
0.179970318264436
-0.05526679273511656
0
0.9637126759162898
-0.027208750455991252
0
0
0.8132040133697521
0
-0.1681272689197465
0
-0.13145083527363252
0
-0.08528287378447395
0
-0.08920924302821077
0
-0.0640778720378518
0
-0.05980413128056016
0
-0.020509602339739988
0
-0.05814892461613553
0
-0.011256121284823221
0
-0.0319433256321956
0
0.01726745505187188
0
9.31259418735379E-4
0
0.04328061104964612
0
-0.016803138016521783
0
0
0.006501128157799889
0
0
0
0
-0.15625484889096486
0
-0.19171773869758105
0
0.805685021062097
0.12459736035779108
-0.1596958887459676
0
0.9662979621449937
0.28004891842639457
-0.1383897106810291
0
0.9937434923042724
0.38332387697926085
-0.09164228967573475
0
-0.1151525687837792
0
0.42618996912396573
0.9975279507309911
-0.0710403842401326
0
0.40828950747349063
0.9987909266852489
0.9976240603992909
0.3396533277000264
-0.0160059669875634
0
0.9933968327606952
0.19296589799041977
0
-0.0712411297766739
0.9679193210936426
-0.023271792231391416
0
0
0.8143825171597784
0
-0.13451611481638281
0
-0.14300205185719153
0
-0.1107228127965179
0
-0.11306068474163045
0
-0.07507806871077104
0
-0.0742354313723494
0
-0.022614686325498342
0
-0.04097033487584314
0
-0.021588466147760058
0
-0.08914521789138717
0
-0.0018105706362500438
0
-0.04103135260284039
0
0
0.03542001496738093
-0.04732942485853985
0
0
-0.0027893260078504113
0
0
0
0
-0.16755838215447702
0
-0.15462322105452533
0
0.8067025922795041
0.17428158480137668
-0.1531492725328146
0
0.9674080896605927
0.3476514542137084
-0.0882846462370903
0
0.9941454765625952
0.4646954660039308
-0.06860937652028866
0
-0.022315780788997038
0
0.44699713817333914
0.9992195412905934
0.0071890603879797765
0
0.42688491370651555
0.9989025979553469
0.9990567701034844
0.315674996054259
0
-0.06038588351242893
0.9943346693381812
0.1651664431083958
0
-0.07936800827325347
0.9683431366372588
0.0025001570916281194
0
0
0.8145173075329987
0
-0.11119644522221515
0
-0.13328417133332074
0
-0.09063404783538777
0
-0.10712743856154903
0
-0.039347530465648095
0
-0.06579705238906099
0
-0.08759432143207489
0
-0.050152123848750986
0
-0.04554357202913517
0
-0.04823444254931844
0
0
0.002295674910718652
-0.04314184224116249
0
0
0.002603353145764917
-0.040554058657248045
0
0
0.020403931325734034
0
0
0
0
-0.1763900593942972
0
-0.1121541995983882
0
0.806667842591627
0.2100309892590947
-0.10427715667584198
0
0.9665609498277715
0.3705955589193621
-0.09784632314682211
0
0.9933131057547281
0.44542011427986367
-0.07203469474712511
0
-0.019704759795462226
0
0.47114894968087334
0.9977342382710274
0
-0.017426305119321247
0.4436683878843457
0.998663325393585
0.9975132324945815
0.33145710878263407
0
-0.06118636097237128
0.9933698174570798
0.17848070306476227
0
-0.06100614870161138
0.9671374897014005
-0.02835145281667725
0
0
0.8131447392080636
0
-0.10259633102693994
0
-0.12827178143766296
0
-0.08984093326411013
0
-0.08864059681728764
0
-0.03941676570027606
0
-0.03159608281484915
0
-0.034905138764912406
0
-0.009367862434843777
0
0
-0.027711292522085748
-0.028405687852156806
0
0
-0.024157551926651217
-0.03491576214805755
0
0
-0.03352351429167421
2.248531200178876E-4
0
0
-0.025186675458850238
0
0
0
0
-0.17409378005449427
0
-0.10897744677742337
0
0.8062038146781098
0.1778423460178353
-0.08962919164136295
0
0.9624753739117254
0.34430881386501233
-0.05723454449983773
0
0.9879300741146705
0.43160524800034916
-0.043998039862952365
0
0
-0.028379637180370832
0.48326200499171906
0.9924627580663347
0
-0.04239998171087758
0.46460213896645847
0.9925790757723939
0.9919180285777097
0.3868112566480412
0
-0.03581155347351492
0.9874532270507466
0.1985119999779049
0
-0.08542523979126913
0.9619145760140503
0.005915772395651095
0
0
0.808401317062828
0
-0.10545891311201762
0
-0.11592613324196323
0
-0.06065780016156452
0
-0.06189041179533611
0
-0.037205691813589244
0
-0.03755129303082239
0
0
-0.049228915724466075
-0.01793856897348956
0
0
-0.01806426040304959
0.0064003320818818155
0
0
-0.01613524574793886
-0.004802041966427807
0
0
-0.03793922231682604
-0.02318091632910212
0
0
-0.002631220108620493
0
0
0
0
-0.18346022673329634
0
-0.07613357680708648
0
0.7931280839182494
0.1794632918625517
-0.03377036658545906
0
0.9326526510176644
0.3123232386657293
-0.009232868194821144
0
0.9582161308783553
0.3933961618466226
0
-0.05262416912358145
0
-0.038960015292757416
0.4315319502815372
0.9614182314886844
0
-0.07128108947700994
0.42571180942997006
0.9612667251360407
0.9602003715785675
0.37970750176436024
0
-0.06069569622942478
0.9555248794601597
0.21169592835154216
0
-0.04557395994526505
0.9313410255905913
-0.009739562514189616
0
0
0.7812475237252398
0
-0.0519369430992651
0
-0.14076690190728025
0
-0.02401876431838541
0
-0.07884789741936758
0
0
-0.030458101780137522
-0.02572654329373399
0
0
-0.029974933789785888
-0.023638552120055837
0
0
-0.03122130763963749
-0.02157589785954596
0
0
-0.05956190839909368
-0.021534526114095287
0
0
-0.05874127511959728
-0.01658176443866627
0
0
-0.006100331009484944
0
0
0
0
-0.19766146920267322
0
-0.03594723382942943
0
0.6478926662595759
0.13424794612116267
-0.03200638573429673
0
0.7802951086270332
0.2621848221542616
0
-0.03873782926337798
0.790312824793319
0.33350986840588254
0
-0.05286392506588194
0
-0.05795607143828475
0.35342432873364066
0.7912619327640414
0
-0.061060693584243715
0.39675333076438
0.7907348105754871
0.7896155793451215
0.3251698102564156
0
-0.07258538001243804
0.7865299108593221
0.160638296280735
0
-0.06051014328585932
0.7642942070216351
-0.019598572471985157
0
0
0.6361450363803919
0
0.00556005708378085
0
-0.13774017192029445
0
0
-0.008657343593952456
-0.074458326200896
0
0
-0.021105041049297227
-0.030460112183547283
0
0
-0.03714316222725921
-0.009529600192172165
0
0
-0.038725525516052545
-0.01258770445802391
0
0
-0.04645295206758581
-0.018869026355338322
0
0
-0.024946989265981837
-0.008222272872108053
0
0
-0.0025790694405253968
0
0
0
0
-0.24012830668377375
0
0.035540762069249575
0
0
0.08053585551903898
0
0.002551725182788964
0
0.21150896738268418
0
-0.012665546012208208
0
0.26575360664992626
0
-0.023147227705456967
0
-0.0581309060872095
0.2863685767755319
0
0
-0.06656637481847304
0.26246469055193783
0
0
0.20712837157655353
0
-0.05333848514461701
0
0.08933532403083015
0
-0.06171486547645321
0
-0.054278981717941675
0
0
0
0
0
0.0034842496348083105
-0.14758459907607635
0
0
-0.03387586314593894
-0.08228969218842613
0
0
-0.034881443544239416
-0.024177939031022156
0
0
-0.033871583336415344
-0.009649064674987965
0
0
-0.0634395778304358
-0.022327587751575853
0
0
-0.06185768656825232
-0.024144058522655124
0
0
-0.017443884135720674
-0.029025101371093518
0
0
4.5168682687814335E-4
0
0
0
0
0
0
0.004629491797222106
0
-0.11665294951280399
0
4.129371527408245E-5
0
-0.030774320337617612
0
0.004421597633805276
0
0.04612784625774694
0
-0.043915377276001616
0
-0.01897630651116204
0
0.020326057313215948
0
-0.029629625686980982
0
-0.03428549270876701
0
-0.03741243607891429
0
-0.04807728320996832
0
-0.041336028558183
0
-0.0741316397413448
0
0
0
0
-0.03318951105238429
0
0
-0.048427912494489515
0
-0.07554212777562073
0
-0.058681332709769045
0
-0.059734564529899524
0
-0.06976637281504526
0
-0.06609269115899251
0
-0.07168186078876769
0
-0.02272247952453355
0
-0.060391742662008197
0
-0.05006070135467374
0
9.472657000009951E-4
0
-0.03926184190712644
0
0
0
0
0
-0.01666000613717544
0
-0.09817602872979754
0
-0.01651676308511847
0
-0.08468824522214818
0
-0.02257285738974107
0
-0.11059306969577364
0
-0.031097842440910923
0
-0.02841680994674035
0
-0.10954061520652482
0
-0.04260805056518022
0
-0.10482058961283086
0
-0.07062276808132804
0
-0.01545058851565217
0
0
0
0
-0.025287696240930597
0
0
-0.06579374608600451
0
-0.11491168459011321
0
-0.04484455671035726
0
-0.04789026237587827
0
-0.04006252606092717
0
-0.06788728407547623
0
-0.05977223255276535
0
-0.07328084226648167
0
0.0033260928614261467
0
-0.06344202850134638
0
0
0
0
0
-0.01879194187347005
0
-0.12760802686572073
0
-0.010269393881482436
0
-0.11164636562364545
0
-0.001765070550879967
0
-0.09609792268404253
0
-0.02155678442160314
0
-0.049056962531971206
0
-0.0778108442154286
0
0.0033706685701465748
0
-0.04790115658401995
0
0
0
0
-0.021669310442245734
0
0
-0.05747632627757399
0
-0.06373645695826592
0
-0.05063012213008778
0
-0.0694171693926784
0
-0.04294252038403689
0
-0.07057847281325548
0
8.012067260476304E-4
0
-0.07217553966543956
0
0
0
0
0
-0.015869914103066932
0
-0.06175005372977963
0
-0.01357781591928914
0
-0.06381908400624041
0
0.008857107497318719
0
-0.06210439205363771
0
-0.005627239975033869
0
-0.0034432536482969134
0
-0.04484338312777017
0
0
0
0
-0.03121403264312839
0
0
-0.0382553482500875
0
-0.08284044815782597
0
-0.018311158223240653
0
-0.06803166476600324
0
-0.02913113604758902
0
-0.061291569885446144
0
0
0
0
0
-0.006229248829528967
0
-0.04791222130973092
0
0.008542020191368746
0
-0.02882399119658256
0
-0.008461634868344616
0
-0.007672513412851155
0
-0.005864224709143274
0
0
0
0
-0.008100712433498107
0
0
-0.01002310448258184
0
-0.060718106794087644
0
-5.072517950621166E-4
0
-0.07044016632009302
0
0
0
0
0
-0.008266667321497058
0
-0.024950525056932613
0
-0.019850998124243405
0
3.6664553200082135E-4
0
-0.008757051266407282
0
0
0
0
-0.01846597497813078
0
0
0.01506801908720338
0
-0.054120832327924286
0
0
0
0
0
-0.00723704382483856
0
-0.05116834408038474
0
-0.012854924858607918
0
0
0
0
-0.005303673098401452
0
0
0
0
0
0
-0.01620998165432434
0
0
0
0
0
0
0
0
0
0
0
-0.15472651657503833
-0.09207481237517397
-0.01204594971930036
0.014946221357117984
0.015045174846256726
-0.03336642793999799
-0.07454773728123397
-0.14916971015118632
-0.14033561582540088
-0.11801489583179266
-0.09509162789950666
-0.05661739719279792
-0.016031921979371293
-0.14158851055973334
-0.15507235568948322
-0.07464415094780459
-0.16274573847277674
0.026819904432136114
-0.15968143677053034
0.049225935397947645
-0.15992816126010737
-0.1523926936701536
0.019637101927513997
-0.15525604097553683
-0.015007208317073478
-0.07163182317538717
-0.19367481804464048
-0.16821035401365905
-0.11459447702326205
-0.13221550513100622
-0.11501419648025259
-0.10301684622242076
-0.06320295148940186
-0.12719687790901316
-0.02046302428980916
-0.08956497718611757
-0.006833865903640545
-0.09433292438335734
-0.16563648140734485
-0.2177908489141087
-0.04608121770007311
-0.1880690288625818
-0.21047046750524742
0.04376243250949821
-0.19613570469581532
-0.21726871033454564
0.08734759741274739
-0.16801556421963634
-0.16198836524507335
-0.10200197654878801
-0.1378261384202887
0.040037792106943144
-0.10513025533243398
0.005300844207969866
-0.040331317999183776
-0.16712728679862335
-0.17315744342264006
-0.1531976041931671
-0.15447593572476934
-0.13437921581153103
-0.11931766446605914
-0.08286934670740416
-0.15251370193278593
-0.09806589958020105
-0.03985371558664896
-0.11379000056559717
-0.11598231599114668
-0.02534581912486404
-0.08708354284471659
-0.02402014367954153
-0.08271406654729739
-0.18519192262158538
-0.18262557473339802
-0.16230141164961778
0.01963030152968608
-0.2094571402506098
-0.21130193036347011
-0.18139391904404267
0.06738431828906567
-0.1725754346767171
-0.21735030062610391
-0.14252809302927952
0.07604079466248831
-0.1327909106023721
-0.16790828384324186
-0.09334711156956314
-0.11025438480243649
-0.14738962396948177
0.05685391166996492
-0.10400857650238525
-0.0230590695985653
-0.05983282571272691
-0.1554930581485627
-0.1412144040397186
-0.16882763374984575
-0.09445924186802436
-0.1088871641906421
-0.18523942064806023
-0.15085280683913072
-0.10406276619697702
-0.06221355014423959
-0.1451646097923933
-0.14952268969352944
-0.059462230246822866
-0.09667835812071378
-0.1267797741478036
-0.06767562797218997
-0.018795884399895327
-0.09076703236295437
-0.03835662724231503
-0.02481364155540799
-0.13803157843682415
-0.19211695715651925
-0.19493350654016928
-0.12908719892470086
0.008516003546723447
-0.1383197544050319
-0.2387977946233469
-0.2118657894446091
-0.1056604807827477
0.06573399153418923
-0.12754763745486106
-0.23808712933215906
-0.16647865883526738
-0.082689088663757
0.07664105082155087
-0.13375202188959087
-0.1884984985995074
-0.1156990249888764
-0.14694301579108207
-0.1469419923197789
0.047616027637849674
-0.12383021189207093
-0.012718811330530044
-0.08289599199743879
-0.1294868528990589
-0.18863578434212155
-0.1662876392648961
-0.14823712925645616
-0.1451720402470044
-0.06395016589040751
-0.1733838105205613
-0.18920468871061488
-0.12661610840318346
-0.08985495752407259
-0.06465078016067433
-0.16396289747175172
-0.1198643753632234
-0.06020279711985398
-0.0919204842502072
-0.0911959681704775
-0.06276768732518856
-0.08600106827137716
-0.07341892361127016
-0.05390220855149768
-0.05215922953360816
-0.11657788933877293
-0.15096535598170205
-0.21878900203991422
-0.1585058943431288
-0.08495431933323755
0.010377000995290346
-0.11470185350791116
-0.2025302348222802
-0.2488599958507808
-0.13395525925046506
-0.08012761822646608
0.038537496306783374
-0.12091012246715054
-0.22238422672708405
-0.1867032848388729
-0.1143839811738032
0.07748411230045238
-0.16990487445130367
-0.22516983140721783
-0.10287274520805528
-0.16477903055662416
-0.17976638171493675
0.058408126733924266
-0.14526305219805613
-0.039533530821034474
-0.07530039927885167
-0.07648643541777882
-0.14467909153182246
-0.1896660905669475
-0.18125462000083206
-0.10915988865559577
-0.12566855162841725
-0.05794024163396758
-0.1745994058283714
-0.15131200521799523
-0.1334537330825216
-0.08718691012660323
-0.09778940269482334
-0.10219222588459093
-0.12709262876589053
-0.07667517974786418
-0.09015971879338075
-0.15139480643039918
-0.0756495697820465
-0.11834368220948792
-0.09316429330124759
-0.08278589930469703
-0.09461749460558135
-0.10895419686375445
-0.15285801852659334
-0.18088016361620252
-0.19310122000850874
-0.08849795152589211
-0.0589827986220668
-0.05462084946482149
-0.1343350060918058
-0.18892149571040207
-0.22240154047536484
-0.17621157976099067
-0.05836831900906212
-0.019402864340821738
-0.16555347759416114
-0.2491527153500481
-0.1802805351346062
-0.12358178227302742
0.009917911419643538
-0.14644968903082045
-0.23442262288001695
-0.15526188421965212
-0.15454506771054255
-0.154630006259869
0.017056714320657754
-0.11296378451436655
-0.016962012754713998
-0.06335788791499476
-0.03739998011087462
-0.16507287850415334
-0.17036817793146009
-0.1303410728958627
-0.1432785381358438
-0.11698431915252039
-0.08422088227778189
-0.14426648249952836
-0.14122782369719925
-0.12441295484225813
-0.0856353917848318
-0.10681333905702556
-0.17700206145227246
-0.13846560286019693
-0.0513170738193914
-0.12989064575034026
-0.1386960427965462
-0.05407953792237461
-0.10964227498017509
-0.04038332603067943
-0.0384404965951288
-0.10820113063402531
-0.20061064546433272
-0.1666482122756636
-0.20195232422284096
-0.11998735372972731
-0.028228642962319295
-0.1581027045785498
-0.23401587842832364
-0.16878620790975818
-0.14177736358314266
-0.04847682321099698
-0.12915560552571168
-0.2325355718100867
-0.14891761108219537
-0.09557609589695577
-0.13766655068261716
-0.19075348326266214
-0.07325983582522771
-0.11934561453846104
-0.14882045609385489
-0.08010813786252462
-0.097064771121486
-0.1428314203580743
-0.1412709329268007
-0.17329449207563696
-0.1233416674198201
-0.13522712702304285
-0.11422247876109905
-0.14773725415722436
-0.10057082595468964
-0.11706443508250684
-0.17577231894034762
-0.10660251088737677
-0.14039124706588937
-0.09390031508582376
-0.07402501641049691
-0.1681256641661878
-0.21612393151599732
-0.12429994162814449
-0.08237638063842363
-0.06965421581470703
-0.1603603170546606
-0.22587105782750969
-0.09496971531779158
-0.0699094122188671
-0.16878943942056243
-0.16529074622708476
-0.043567147305489023
-0.08487310256557444
-0.12409866527475043
-0.08468543260720501
-0.07648323265973243
-0.07835849434404434
-0.1654992404979866
-0.13374362537517456
-0.09583899850832837
-0.16645925986616075
-0.12842714144738654
-0.09459198860840416
-0.13424436087788874
-0.10511272197177131
-0.1850972116853029
-0.14214505412788056
-0.07547816478301446
-0.036424703732766066
-0.1566836734098729
-0.08617306388987388
-0.047242627778806355
-0.13754422113669632
-0.04880576194705186
-0.14716209471337113
-0.0894019906673058
-0.11218310416787562
-0.1589886992258408
-0.094474759800196
-0.09729129426380927
-0.09650290514995731
-0.10952085249168995
-0.07083735609629442
-0.03354288485132407
-0.1029063778134723
-0.02057232201224091
-0.06991923147787805
-0.08274263517726949
-0.07897056792469791
-0.07270750182381834
-0.043442510011288044
-0.024942459905533305
-0.01913190792513692
-0.06456027837988086
-0.05282785554162261
</DataArray>
<DataArray type="Float64" Name="v" Format="ascii">
0
0
0
0
0
-2.1393795200046152E-4
0
0
-0.002089377060922711
0
0
-0.0021675868131899316
0
0
-0.0026184040601817805
0
0
-0.0024814987569741808
0
0
-0.002161653278248012
0
0
-0.002175660190161305
0
0
-0.004061706692671586
0
0
-0.006339222589051091
0
0
0
0
0
0
0
0
0
0
0
0
0
0
0
0
0
0
0
0
0
0
0
0
0
0
0
0
0
0
0
0.0032473583284626465
0
0
-0.003136679626020084
-0.005418973331828409
0
-0.00172521940497106
-9.984508945212957E-5
0
-9.080330879155958E-4
0.013683622691200268
0
0.014660194144834751
0
-9.352048867583619E-4
-0.02565689646807245
0
-8.951797935634348E-4
-0.0012942885555361407
-0.0012697552711795944
0
-0.0013315759115038286
-0.013032367177739165
0
-0.0014382068170964853
-0.04695185760106754
0
0
-0.0014566908145091843
0
-0.007712511930682751
0
0
-0.0029860978312434825
0
0
0.006718835847790688
0
0
0.010665690799625484
0
0
0.012924166216876662
0
0
0.026716800836732012
0
0
0.018258303656221386
0
0
-0.015462277400293706
0
0
0
0
0
0.018417639544864636
0
0.018819571812303825
0
-0.0032573053903723523
0.025544824528459038
-0.021977706278456122
0
-7.93177833182921E-4
-0.006538948717705189
0.03554040215491897
0
-4.8529393997614876E-4
0.020787391173928693
-3.696574144834199E-4
0
-0.01189475609856742
0
-0.02761365409687556
-1.7487285146657734E-5
-0.007474395761300166
0
-9.755623405040747E-4
-3.08376424798426E-4
5.371955824943687E-5
0.03207685594534703
0.004096703294571453
0
-3.053058666464137E-5
-0.05279510790855025
-2.574833262485925E-6
0
-0.0014094793850616511
-0.009767234140529739
0
0
1.6818460263050243E-4
0
-0.006013436292380919
0
-0.00630726803844674
0
0.021211231234835145
0
-0.012414445811880954
0
0.0036017825937366597
0
0.027720777676290363
0
-0.02750212186554025
0
0.006694705935889225
0
0.024693226594404826
0
1.7225843501462602E-4
0
0.007754965454919928
0
0.02648917755969472
0
-0.005572406583388021
0
-0.0030428942996273
0
0
-0.003624954956949446
0
0
0
0
-0.009977132953483464
0
1.9127264507592167E-4
0
-0.003226935292102278
-0.01679355146458744
0.03705981105608283
0
-0.0011829718106756166
-0.03323449121202116
0.04893654279642611
0
-2.922020763302812E-4
-0.006079059209656835
0.04393270764396905
0
-0.020504050771657453
0
0.021410994521724444
-3.4730662350196054E-4
0.010754781460876106
0
0.018657797303808857
-8.51274520779383E-5
-3.0483774357094162E-5
-0.014598934908741664
-0.004410721682919575
0
-4.6006539018993854E-5
-0.02279523616703923
0
-0.009961238079853855
-0.0013509187621074878
0.023607122603472603
0
0
1.9298608170544886E-4
0
-0.01783637479419949
0
-0.007335271024391503
0
-0.020298547172893935
0
-0.0234635682043859
0
-0.038311011997507076
0
-0.00397635039386315
0
0.01885088157653592
0
-0.0022396905895625614
0
-0.02221518650018578
0
-0.02358164386607058
0
-0.01956613756740266
0
-0.012014232732863452
0
0
-0.01646052431928707
-0.03222728263979339
0
0
-0.0022277341914623276
0
0
0
0
-0.03518307882527317
0
0.012132389753724751
0
-0.0034774688612844297
-0.05168944172707604
0.016828371998111106
0
-9.850199272056442E-4
-0.010314872740919608
0.04092416423798117
0
-1.6876044031936475E-5
0.01657724263801746
-0.021047242027721166
0
0.012450842709834117
0
0.03352007721999529
-2.4965564311165556E-4
-0.04061099723531612
0
0.039718814134859025
3.7744626214430635E-4
1.0722187751904218E-4
-0.006736123478599246
0
-0.024610852742455377
-1.2230255012295446E-4
-0.03362330112172717
0
0.001624723175111577
-8.249790778568743E-4
0.02892604934573929
0
0
-6.125610635183897E-4
0
-8.42796255104791E-4
0
-0.02446921141299729
0
0.010089954142237907
0
-0.04263396779382656
0
-0.010934140818670586
0
-0.04093183535054987
0
-0.012726534668402116
0
-0.014212144377675687
0
-0.02845524518342434
0
-0.027749502068905987
0
0
-0.043966143615666725
-0.03760556985169153
0
0
-0.023636971859966115
-0.012853721619332403
0
0
-0.0017373664759042305
0
0
0
0
-0.03815485341704338
0
5.81784603669597E-4
0
-0.0034429527655169827
-0.055389508116403176
-0.013690262211721203
0
-0.0016319629341018072
0.00403948103107167
-0.009193516669495942
0
-4.5589681832984135E-4
0.01663905025772942
-0.00677323728912561
0
-0.014001832411849787
0
0.03645444395525998
5.361770860418159E-6
0
-0.04569988662563108
0.05848203404330674
3.3067294074994464E-4
-2.797288446723338E-4
-0.03907323586654788
0
0.0054242871831397125
-2.56246546110217E-4
-0.02228334617117982
0
0.031300646161888025
-0.0011259383764485808
0.03143453906644241
0
0
-1.0099350836322582E-4
0
0.007503486915872934
0
-0.032595340514603215
0
-0.018734311276213052
0
-0.054447214893067676
0
-0.013052441863137585
0
-0.04716049600775327
0
0.026200397849483924
0
-0.005984019054366084
0
0
-0.06586345330216187
-0.03033062886717097
0
0
-0.06671857157572923
-0.0667536609877774
0
0
0.003929091844780515
-0.020634383434240997
0
0
-0.005922652584331572
0
0
0
0
-0.008358378046467366
0
-0.02951572972135626
0
-0.0033993545651442142
-0.033830615684389574
-0.020626654025376664
0
-0.0013967141834954535
0.03828261539652577
0.0026336186545059554
0
-4.955206182802424E-4
0.006838485055500107
0.014138396028886393
0
0
-0.027810918867728577
-7.009170263600639E-4
-1.4009432113307337E-4
0
0.0017726668085796258
0.03254709653348012
2.9263717328667797E-4
3.5051404491251605E-4
-0.021087707975032857
0
0.021299623534779946
-3.840572973213635E-4
-0.0015474817513863846
0
0.029121087096451562
-8.399822532102382E-4
0.030904457976051875
0
0
1.6796029658262864E-4
0
-0.042759826384828975
0
-0.006594505750711272
0
0.0055044010925478955
0
-0.0360350146863485
0
-0.006780572613050958
0
-0.051184009097747035
0
0
-0.01958329725620049
-0.02755521838379615
0
0
-0.06727334999458272
-0.025245215613497688
0
0
-0.018067916786119294
-0.043706180028538016
0
0
0.06224664796188486
-0.008999476945580905
0
0
0.00824266937870016
0
0
0
0
-0.03394759710813403
0
0.0021869900830866484
0
-0.0050750616659645175
-0.00470605193181814
0.010757908876739199
0
-0.0013771458991517387
0.024064862219012925
-0.011891373649807411
0
-8.907216352318594E-4
0.039979020066095244
0
-0.05448972271015771
0
-0.025798211067073737
0.001548643989132512
-7.126322174624426E-4
0
-0.006415689105705003
0.012024635220224586
-0.0012289980615767027
-8.368628889985336E-4
-0.010457406304010904
0
0.020873214158291024
-6.287267986534087E-4
0.00878884068792529
0
0.024736207486488793
-0.0011494179130008748
0.009848611904714562
0
0
5.623119668356666E-4
0
0.026837363900166597
0
6.310315896393934E-4
0
0.022703680833246694
0
-0.05266914775147377
0
0
0.002902242780761155
-0.0177606076325092
0
0
-0.05310464927957904
-0.010184789861180342
0
0
-0.07128771870412927
-0.048700889775702944
0
0
0.03206054673279369
-0.03232561538082331
0
0
0.03992347241505501
-0.010333047321520737
0
0
-0.01553941216054879
0
0
0
0
-0.04338593145208902
0
0.01554141111218898
0
-0.008392199151003253
-0.08164020824688366
-0.019045844748687476
0
-0.004330040826591585
-0.030844038527293994
0
-0.01594974474127157
-0.002786051697440131
-0.003723784654809752
0
-0.03374625682001287
0
-0.04464557990521866
-0.018211684494119543
-0.002612269251963797
0
-0.006116308474992338
0.041416984128432976
-0.002711943977513551
-0.0024877489781119197
-0.03485006735530779
0
0.028672458980438142
-0.002394874709153176
5.048675697902088E-4
0
0.03244305130915059
-0.0024856626336742667
0.03503415234072383
0
0
0.002287801944752352
0
0.008852350839812098
0
-0.022662125607844627
0
0
0.03353097498969936
-0.022816128210629213
0
0
0.015019825453758405
-0.006913185350475407
0
0
-0.02793268745633803
0.0010076031917679803
0
0
-0.007234824578668745
-0.0022300009079647067
0
0
0.05680443314352978
-0.019131920506505192
0
0
0.04773994253219894
-0.02604853824957691
0
0
-0.021944412283442113
0
0
0
0
-0.09605436817946893
0
-6.256493283314928E-4
0
0
-0.07272945374997365
0
-0.0022588922458754417
0
-0.054035338121279496
0
0.0035641856714998432
0
-0.04190612900236154
0
5.454977111763287E-4
0
6.029493723822619E-4
-0.014886680983104935
0
0
0.02910785143017691
0.015683007267407904
0
0
-0.011631241327858586
0
0.03708678269459464
0
0.007040112511384596
0
0.03942202577155218
0
0.027709144399364036
0
0
0
0
0
0.0181351404305185
-0.031606824744537944
0
0
0.021542902556994023
0.01456706515960904
0
0
0.04523006065169687
-4.595056874555777E-4
0
0
-0.03579468669912599
0.019111818823604524
0
0
0.034340364886107505
0.017553083035331592
0
0
0.03405434297496813
-0.026684948114240784
0
0
-0.0058995007184177726
0.002779648205939145
0
0
-0.012730437574116328
0
0
0
0
0
0
0.049143752239016486
0
-0.01752871895876908
0
0.0310298150673629
0
0.03581120654455306
0
0.006599131657365723
0
0.0360471714800893
0
0.02997161590326426
0
0.02120054687228029
0
0.02285970425334342
0
0.047334351871469206
0
-0.0047401646468781386
0
-0.018145672840700882
0
0.05485587685077983
0
0.004649041895087345
0
0.039095503306244235
0
0
0
0
6.808381805137946E-4
0
0
-0.030639449371852933
0
0.022927664193186665
0
0.0038589108309277777
0
9.646340675387373E-4
0
-0.03192534334251537
0
-0.009998962039023394
0
0.02090799520901844
0
-0.004281632891277366
0
0.009516927059423088
0
-0.03138354509233757
0
-0.022726180504500912
0
0.018721825956979524
0
0
0
0
0
0.03747784743421679
0
-0.005387196743616939
0
0.04774744645559056
0
0.009946026519844773
0
0.026406449620530695
0
0.008262301586525208
0
0.056252328854016674
0
0.0407022206129325
0
-0.02057017784182996
0
0.027956758013464433
0
0.031121073163626372
0
0.041376451517144835
0
0.019803477388246574
0
0
0
0
0.0040589440571941705
0
0
-0.027137105577107953
0
0.028777622904917217
0
-0.037209673806506055
0
-0.013086098390657016
0
-0.001475498224587718
0
-1.763950765184975E-4
0
0.040952029664397364
0
-0.02803244458426778
0
0.015514100784919216
0
9.77156306897119E-4
0
0
0
0
0
0.008345343776863355
0
0.01272765398170591
0
0.02636781255704791
0
-0.006648377405217887
0
0.009114283695998059
0
0.01473258539082267
0
0.04551111451009326
0
0.04597910698121619
0
2.611343581813775E-4
0
0.025120767887554504
0
-0.0072370112817266566
0
0
0
0
-0.012923851213098338
0
0
-0.02899463476812188
0
-0.01070676592880976
0
-0.004942417739766291
0
-0.007311721813511249
0
0.020733733676484026
0
0.010631274454454916
0
0.03243011766076468
0
0.007985432726452244
0
0
0
0
0
0.01964783122278463
0
-0.029309637957471737
0
0.012679249632413738
0
-0.0010191330571770187
0
0.0072299413473291526
0
0.00474581833272958
0
0.034622427998178044
0
0.03536540591314507
0
-5.215389224115212E-4
0
0
0
0
0.018717711684373486
0
0
0.004488617215887115
0
-0.022720504457872107
0
-0.009332744905159005
0
-0.011834133629414564
0
0.00783258849575517
0
0.017818564106530804
0
0
0
0
0
0.029385916468821608
0
-0.01751733415434986
0
0.014102676382747465
0
-0.02843680843130725
0
-0.010689296802414342
0
0.03240624088797318
0
-5.097820256057315E-4
0
0
0
0
0.028602111760999766
0
0
0.026960158283379495
0
-0.03575501187191866
0
0.021024855946455104
0
-0.006994131389562861
0
0
0
0
0
0.005308800686304956
0
0.001763900159593504
0
-0.024304885750181197
0
0.0022698082380534427
0
-0.004322815753044346
0
0
0
0
0.03719474649757529
0
0
-0.014153447623017864
0
-0.00905000578944934
0
0
0
0
0
-0.008961149827881655
0
0.01844821063457512
0
-0.00186967774368356
0
0
0
0
0.018220853765135606
0
0
0
0
0
0
0.009815805757126763
0
0
0
0
0
0
0
0
0
0
0
-0.01403950783452597
-0.03410568039322525
0.025405883102903818
0.04868027912897865
-0.00485132892494124
-0.003554149957823992
0.03298504178695538
0.0013087950700404088
0.0010161772528806618
-0.013156816531835739
-0.049763687950832386
0.008938624841491903
0.009080174907862304
-0.02281009418824898
0.012584728736331633
8.313690846321578E-4
0.08756392925577679
0.03729894100870012
0.08928552163283571
0.047963794344281635
0.06793020112338338
0.012685450709355678
0.06642337703627094
-9.126862368884504E-4
0.029690632617585654
0.03283581686184008
-0.0021266978869612656
0.007157419948739862
0.013929723779044273
0.004822600609963716
-0.011226041825308015
-0.02690386903711002
0.017825788654734945
0.014714570630971811
-0.05663490410828726
0.02557581489669181
0.0027629024312203075
-0.017900009996394503
0.027277255391229164
0.00649550825032492