<?xml version="1.0" encoding="UTF-8"?>
<VTKFile type="UnstructuredGrid" version="0.1" byte_order="LittleEndian">
<UnstructuredGrid>
<Piece NumberOfPoints="1331" NumberOfCells="6000">
<PointData>
<DataArray type="Float64" Name="u" Format="ascii">
0
0
0
0
0
0.6295345856347483
0
0
0.7638020955574724
0
0
0.7861597658930403
0
0
0.7897488584293396
0
0
0.7904588405987224
0
0
0.7902990474049795
0
0
0.7899677997454991
0
0
0.7810604172596127
0
0
0.6551144469628839
0
0
0
0
0
0
0
0
0
0
0
0
0
0
0
0
0
0
0
0
0
0
0
0
0
0
0
0
0
0
0
-0.23052495998163094
0
0
0.7740210882496178
0.10132367244315967
0
0.9293635378648983
0.23563432306933874
0
0.9561538385968175
0.28971838290308516
0
0.29086144797684094
0
0.9605885547430192
0.24696603919989615
0
0.9612718676589159
0.96094644916084
0.2032300001164288
0
0.9579473602673806
0.11321878511940382
0
0.9340530677664329
-0.03948319397524259
0
0
0.8013321896916371
0
-0.14736096498714743
0
0
-0.06097557595141057
0
0
-0.02681433546634061
0
0
-0.0034918409606200062
0
0
0.0072144986086149525
0
0
0.00846072927018951
0
0
-0.03677152225730674
0
0
-0.0173870178726625
0
0
0
0
0
-0.1968470258125871
0
-0.12841346047039479
0
0.8012574914514848
0.1428255508485776
-0.05237338238949798
0
0.9606309476992306
0.2839887669199254
0.009092926996904359
0
0.9883485838678806
0.3690716436008686
-0.026681653029735176
0
-0.039210343395127606
0
0.3613339668172469
0.9921314653942587
-0.0426332957175627
0
0.3254043335441894
0.9929479522187511
0.992416139810107
0.27319936845397846
-0.06819716524037804
0
0.9884477489020704
0.19926646990349042
-0.07629487372890442
0
0.9641660254729737
-0.011383674713718981
0
0
0.8136192426912169
0
-0.08476681650217871
0
-0.13917393343435855
0
-0.0720203074628034
0
-0.11668035311299112
0
-0.008394938274051902
0
-0.0647063663099847
0
-0.017107758177504356
0
-0.01624898747549512
0
-0.014274466267301162
0
-0.01681061735270339
0
-0.046450198228551814
0
-0.016104398516441795
0
0.0023055691715314006
0
-0.032512559487143274
0
0
-0.012081526106225536
0
0
0
0
-0.18404487269231773
0
-0.13219593818317102
0
0.8059818994387414
0.15946359759116824
-0.15298093995737447
0
0.9660269609799096
0.2960947395717914
-0.1301196017598557
0
0.9936222614678857
0.37170880892942354
-0.1374537631771844
0
-0.10790469078488113
0
0.39284997826326085
0.9983141905625009
-0.08662496747225189
0
0.3465427198549238
0.9986058704457351
0.9974297836325144
0.2957590942970778
-0.036307550780556024
0
0.9940770336041477
0.142017031708192
0
-0.05426127670406186
0.9684166498632347
-7.526197466528775E-4
0
0
0.8141928210563952
0
-0.12923435923824964
0
-0.1209920217342453
0
-0.06451024402765733
0
-0.06661873201949507
0
-0.03386744670928866
0
-0.0417684855026941
0
-0.035163533473221646
0
-0.04712659764355997
0
-0.07542670356108915
0
-0.03213747084426489
0
0.007453077351689282
0
-0.014291885528893029
0
0
-0.022901457441163228
-0.005789040383854122
0
0
0.00833389489239411
0
0
0
0
-0.19603250304168177
0
-0.14815968726958595
0
0.8068896115334835
0.14809195827487842
-0.14692885453282126
0
0.9668381785096329
0.32283226651318125
-0.09799930667807864
0
0.9941273697987251
0.3930896993718827
-0.05528640948599714
0
-0.028513199789745678
0
0.36803690466396227
0.9985359939329358
-0.018970843891486688
0
0.3577666956071768
0.9987629312585825
0.9987239634280504
0.313314961883137
0
-0.04045427100441021
0.9944449136991705
0.13616005410402734
0
-0.0710908440747593
0.9683465030525612
-0.0621190740700614
0
0
0.8138499124005065
0
-0.11487384766216337
0
-0.1466759931174311
0
-0.05285161968624472
0
-0.07647220792718491
0
-0.027564723449822196
0
-0.062389656203991374
0
-0.02493228151855968
0
-0.04195958407914057
0
-0.016094875271662926
0
-0.05044514122521501
0
0
-0.021052633939035045
-0.0209843292654493
0
0
-0.023021661717154515
0.0034920115150339367
0
0
-0.016799596487628184
0
0
0
0
-0.20092443822643355
0
-0.0753851953599623
0
0.8068753409319042
0.12305878452159065
-0.050980101389431993
0
0.9666582173279382
0.3084525276846824
-0.060621852912680525
0
0.9932956352784452
0.4059336889664975
-0.010133181544430443
0
0.006841872263862395
0
0.45564428443359445
0.9973066271040824
0
-0.05182166796080257
0.4629021485139189
0.9982914957266531
0.9979521583980264
0.3844059289462243
0
-0.044520393657901954
0.9927197772360562
0.1802486640580988
0
-0.06492919820469577
0.9673254846836836
-0.023476058883905655
0
0
0.8130596602534333
0
-0.055312972713604275
0
-0.1626870666547999
0
-0.02147409423552772
0
-0.10234445514606023
0
-0.05022594886467066
0
-0.05337666392365606
0
-0.012426637192282377
0
-0.02178110751019297
0
0
0.0013606235543354194
-0.0394134024024485
0
0
-0.018921542081877126
-0.04873707732511486
0
0
-0.026695085174222477
-0.011644870991765232
0
0
-0.030336821420999433
0
0
0
0
-0.19162443672154247
0
-0.03639717461241653
0
0.8061646698743009
0.1846603916263945
-0.035785155899307225
0
0.9628345301190371
0.33353299764272654
-0.024990052659635068
0
0.9887425467329537
0.4240601728801466
-0.02607098053758361
0
0
-0.0702306460766881
0.45218406829068397
0.9923950334987399
0
-0.04903677165871065
0.41841835672396144
0.9930127292933696
0.9919051724420082
0.38071817920399803
0
-0.06658252522026455
0.9876602497631916
0.2228666378308812
0
-0.07076401348132945
0.9618476795088194
-0.009166890817318805
0
0
0.8086219562805746
0
-0.04345334311014793
0
-0.14161435224440622
0
-0.06111531567760157
0
-0.08944242652897529
0
-0.020670967254082847
0
-0.06804144963918345
0
0
0.0021156185320608373
-0.034123726522602434
0
0
-0.005270528159578514
-0.05154816771464412
0
0
-0.012124013273681226
0.008398288392796964
0
0
-0.02732285500839167
-0.028164538459723987
0
0
-0.029745129787083737
0
0
0
0
-0.16904493806474952
0
-0.03602102178758936
0
0.7935571141056056
0.2074205627446054
-0.035455588250109075
0
0.9326432927828948
0.30730751739140877
0.03074612783044951
0
0.9578267883737385
0.4110067157380808
0
-0.01273662043767359
0
-0.03963736926653308
0.4687047864665365
0.9615368667645332
0
-0.06756259415782323
0.4319844115166572
0.9613999435416858
0.9610078466553827
0.3396552778800779
0
-0.07388625231902934
0.9559783657450426
0.18120569037756107
0
-0.07924247969461279
0.9305909453543054
-0.012503995617231166
0
0
0.7813436326339077
0
-0.015053002750132757
0
-0.12154750111654876
0
-0.02607772902886985
0
-0.0668457480897538
0
0
-0.019888305733237018
-0.05874514573345068
0
0
-0.027722261589830557
-0.02089479435908226
0
0
-0.025764137496466995
-0.005512151468705816
0
0
-0.056167351655316965
-0.010962612474689439
0
0
-0.057296654659203756
-0.01717687572595901
0
0
-0.008528736044560002
0
0
0
0
-0.1606520690994784
0
-0.009608518902105146
0
0.647243897282208
0.1661443533021649
-0.025070889082515386
0
0.7812425678570397
0.29452025380620567
0
-0.008443748946593695
0.7901118732346478
0.37509179029261364
0
-0.006370324271754759
0
-0.033299258860876695
0.4102940326557067
0.7905307750610052
0
-0.05138910189106328
0.40688114615595095
0.7906017461335989
0.7897919802523353
0.27331080290510895
0
-0.05087241074909618
0.7864688671369785
0.134221407392516
0
-0.05954634548163592
0.7645202049073491
-0.033907973318029756
0
0
0.6368080004411567
0
0.010442072596567707
0
-0.15045606254510202
0
0
0.0033251621627758466
-0.07658741581671165
0
0
-0.04572636263140218
-0.04205833761043723
0
0
-0.07663732751872286
-0.04240411676483758
0
0
-0.08470119025967172
-0.026446505922085226
0
0
-0.07418313030243516
-0.003496768143205741
0
0
-0.04211827702243262
0.02060738545475237
0
0
0.0045725672508518805
0
0
0
0
-0.24692867176142833
0
-0.001389108438570774
0
0
0.08131725606655356
0
-0.019021654299153427
0
0.1940165537832538
0
-0.02622456194119815
0
0.2570918404251221
0
-0.021729151437354252
0
-0.013728703343642292
0.3121686986444984
0
0
0.004218825517801862
0.284197050752657
0
0
0.2162401727388895
0
-0.04337333522865369
0
0.07508274203457606
0
-0.05633304122442807
0
-0.05816587624889855
0
0
0
0
0
-0.0027320260472099237
-0.14713598242901196
0
0
-0.02954998991023398
-0.029502808143208676
0
0
-0.07442542306470656
-0.02665821151245994
0
0
-0.07282862875767317
-0.002763230641994504
0
0
-0.05587802185162174
0.0026904349928458093
0
0
-0.03126283128315344
0.029914900218324766
0
0
0.021318807334931193
0.027288341420843867
0
0
0.006541396070912749
0
0
0
0
0
0
-0.015177658771465112
0
-0.1148742581935185
0
-0.001967652998360083
0
-0.04866086585603804
0
-0.035744309080536836
0
-0.014154479054072891
0
-0.03378673399804603
0
-0.032027333565630665
0
-0.0011348861252062853
0
-0.02490729420470285
0
-0.011793037715067177
0
-0.02500638129607606
0
-0.018103325663435848
0
-0.08327759069516255
0
-0.09177740976311517
0
0
0
0
-0.026947132891026862
0
0
-0.08355598353492949
0
-0.08240682987500576
0
-0.07038685928394334
0
-0.04468516855100832
0
-0.07716096878928798
0
-0.08644133445775265
0
-0.05782202774235221
0
-0.03671344695337118
0
0.0038311413573478693
0
0.006164364603499391
0
0.030367766322418336
0
0.04335684043614329
0
0
0
0
0
0.03270752711416403
0
-0.10872291836533647
0
-0.007826104247239294
0
-0.1326068543127151
0
-0.011746999171619999
0
-0.12306835279282695
0
-0.06358129645653039
0
-0.05733664690541706
0
-0.13349003962137088
0
-0.019743382549696445
0
-0.13441773651671426
0
-0.09263849450551703
0
-0.04462067986082662
0
0
0
0
-0.04143809427139608
0
0
-0.06781455500886825
0
-0.08741891840773565
0
-0.07200469166849359
0
-0.11114625053585002
0
-0.0752964616335446
0
-0.05554173510657235
0
-0.034575773047430945
0
-0.054716370684333444
0
-0.006690565346268495
0
-0.014042553572538858
0
0
0
0
0
-8.203278655397861E-4
0
-0.09963508542480959
0
0.021264560965157216
0
-0.14250813236225066
0
-0.010911979554262534
0
-0.12822905416002414
0
-0.04212632528336046
0
-0.03266567884613351
0
-0.12626821002686114
0
-0.02937233008861394
0
-0.08372653027938598
0
0
0
0
-0.015294658056046698
0
0
-0.017521826858678993
0
-0.12408573994664651
0
-0.09269266569131986
0
-0.08305474823496574
0
-0.06178214379857868
0
-0.030045832730471237
0
-0.030273294048005706
0
-0.039660592611985755
0
0
0
0
0
-0.01658062474350858
0
-0.13089563697433035
0
9.61037915139178E-4
0
-0.12195838593975684
0
-0.0533058339953574
0
-0.08941573045481334
0
-0.01171811466993334
0
-0.0353796654512285
0
-0.07070235074583596
0
0
0
0
-0.018403934623610604
0
0
-0.06324084094963013
0
-0.1033438165776031
0
-0.08489370024250248
0
-0.08802825346391946
0
-0.05476787884519419
0
-0.0664341082468826
0
0
0
0
0
0.003499245771827601
0
-0.06127544980475038
0
-0.016831670124630566
0
0.00954253086679843
0
-0.007512906941537472
0
0.04340006231373327
0
0.023144532737926157
0
0
0
0
-0.09545133568316239
0
0
-0.043428743892290005
0
-0.055001083365865906
0
-0.06362296918102929
0
-0.05608756173066445
0
0
0
0
0
-0.04273963925455318
0
-0.004893116566846948
0
-0.010820411904391257
0
0.006985037094019624
0
-0.007965988070316926
0
0
0
0
-0.04071913632472243
0
0
-0.030369452473301178
0
-0.05432454814403289
0
0
0
0
0
-0.026114396867267797
0
-0.021294144436957315
0
0.0013503785821485858
0
0
0
0
0.024982955334396473
0
0
0
0
0
0
0.012591315351995461
0
0
0
0
0
0
0
0
0
0
0
-0.11676336749159479
-0.051394722264082406
-0.004112407748136162
-0.014706364554861124
0.016398753652869285
-0.0244833557971984
-0.08650759464569452
-0.16280372614260816
-0.1465279281025942
-0.06827776609545062
-0.05994222941672154
-0.05130667030804722
-0.02841227857089983
-0.07831711125606211
-0.1778031415496528
0.007156829569998027
-0.1961104580753705
0.01550655326876669
-0.16727496844188752
0.03152810520700153
-0.11139084488413133
-0.13103281115631568
0.03213631674109637
-0.11642506221884132
-0.03808405341051066
-0.12902032751329942
-0.173523805815861
-0.1283651767864504
-0.12564485131030537
-0.1259334219360394
-0.09100596125256659
-0.13170684955502446
-0.08582908041663012
-0.08272174051565967
-0.02817697929944352
-0.0594878327388532
-0.05707143384992184
-0.09712774960643383
-0.13772517946072058
-0.20858252350930626
-0.06559823633495186
-0.16066572857433367
-0.16510895996877428
-0.006635862694366308
-0.14262126924918836
-0.12842821076220826
0.01865389732487283
-0.11255476383352427
-0.10546454331743266
-0.10527516639526015
-0.13591742936927653
-0.014151448548541617
-0.11647709449001627
-0.07890099246799688
-0.10205005400418977
-0.1942083764097645
-0.17833573735929142
-0.12586360599234062
-0.14004308072740543
-0.1659913486939707
-0.15802036383577048
-0.14274842992945136
-0.12632824908858534
-0.12655983809519147
-0.042826653508453744
-0.1156991461016683
-0.13290725786722343
-0.09392636274193979
-0.07599261881269626
-0.05976184723030518
-0.14876395692483604
-0.12407983108972957
-0.17282128813728856
-0.14833732794593638
-0.06360326441983781
-0.13563229941109167
-0.15435978225445043
-0.1493182332936794
0.04600177547602202
-0.14716155567141478
-0.16416078879444287
-0.12381626676308112
0.11220538895824954
-0.09779040729126705
-0.15001875197867467
-0.10502607874102084
-0.12461071765166397
-0.10533688977832746
0.08131272142643375
-0.11892097442894463
0.04127692861617394
-0.06949169266991495
-0.09755472488045137
-0.19198650667413808
-0.14538062544925004
-0.15476251223981438
-0.1233246583416688
-0.16416601507815629
-0.17290209398171552
-0.1506508372772939
-0.06228486886102974
-0.15593837694829912
-0.15446465120774733
-0.12712848239008293
-0.09415860647759249
-0.12962766850543025
-0.0658034510749823
-0.07946021677382381
-0.07375070908613089
-0.06192148496993057
-0.12479754504374617
-0.16224306832190868
-0.13828242984073777
-0.21864893853278647
-0.09590918596986288
-0.01942591156109509
-0.14534463580689086
-0.15155714090863726
-0.19923440024972286
-0.08023803122079796
0.08103267857327957
-0.0912455206823541
-0.12773003922807072
-0.12279601808489626
-0.032098219031914794
0.12708525746717567
-0.08365667768163097
-0.13293717766117416
-0.09225996220008749
-0.0978473869239887
-0.10392351088063335
0.1135859138363592
-0.08793862583855022
0.024690508088070648
-0.054989813081369764
-0.07284044929477183
-0.15265772589612203
-0.17639643269926444
-0.16068957519820384
-0.16238949793670587
-0.04561513066008272
-0.15650192055649817
-0.1677700465634753
-0.19499925897590611
-0.0996710991081688
-0.12374047002938197
-0.17638058847410287
-0.14216183968706098
-0.05323891501040625
-0.11215930206321488
-0.11702360385302542
-0.05161666174351807
-0.10980234998986753
-0.0253097432119731
-0.023320035406125445
-0.1153255449818708
-0.13888366704010566
-0.15836704127968737
-0.17341980432930934
-0.12512401755853422
-0.017845984179825466
-0.019832095240155626
-0.10590513167515408
-0.14229553658235392
-0.216767736693483
-0.08207277579810525
0.010100173500439515
0.052344647171046116
-0.07944002358326757
-0.1290542687327562
-0.17369779623760817
-0.033417463887284386
0.045281553209871345
-0.0991692805611016
-0.16682147701554728
-0.09546383045083527
-0.14196081606157426
-0.10226262484067035
0.02469203520859066
-0.11290809192199079
-0.016109040327220655
-0.0399357620521843
-0.04336027086481064
-0.10451563676492077
-0.1776771776999175
-0.20889586737165378
-0.15329583861428733
-0.1559247227897496
-0.12637456425908367
-0.21456091297344468
-0.16513299856829236
-0.12331240732528319
-0.09640373578398727
-0.11908597352901633
-0.1736350296356729
-0.09867552996982541
-0.07542783217095363
-0.1239603745309497
-0.07696532297646576
-0.0582325723663483
-0.05212846545136481
-0.03972883580274586
-0.03434766409826751
-0.12802717675686373
-0.1327436162545331
-0.17277341724338277
-0.20842007666695042
-0.111624531721031
-0.07580427669485118
-0.04359410254397325
-0.05075160637172595
-0.12403885296014838
-0.16442518809861092
-0.18162282031657762
-0.07984593796380769
-0.01950196220725436
0.02905327671788886
-0.1439336582127199
-0.16047382658292583
-0.16730942351233036
-0.1045022674193777
0.03503820180942208
-0.1886659006609527
-0.14666622796566064
-0.11803189100218693
-0.10123193080144287
-0.13579781500057783
0.017153283267415234
-0.10982964915421395
-0.062443652243488114
-0.0855791003688182
-0.07401027443019531
-0.16516288876435462
-0.21221869858841746
-0.2085723262106299
-0.11802107129330293
-0.13708732696108106
-0.13887737533864855
-0.20493457893214373
-0.16842057657163736
-0.19772861103970477
-0.0840493628078946
-0.1350851568046574
-0.15093512322751987
-0.09812114757842004
-0.09426487482095651
-0.08702215270602992
-0.07705383934094166
-0.04195704891147625
-0.041397948249231924
-0.03558300751212432
0.007056841310519399
-0.17909027291078292
-0.2023043112405505
-0.22341604680298222
-0.2212706230383175
-0.07860471737895834
-0.028550133679730357
-0.14592714157550726
-0.20308645105568604
-0.22842334201946016
-0.14323049864864004
-0.049474520657813235
-0.1448361949819689
-0.1771269215981469
-0.22717256376051
-0.07430701140415973
-0.15935698225085615
-0.12186196415792773
-0.1773282835679434
-0.0904907648251949
-0.1539207944337719
-0.09112270845109155
-0.09902001354143275
-0.16702279391099673
-0.20119128379463758
-0.21759080826471952
-0.12034583699284844
-0.1258206628010421
-0.14660885281140287
-0.15358745262530127
-0.15985005004667704
-0.13169108820449302
-0.08617541255261901
-0.08570890963995953
-0.09290217934047779
-0.031445734408541474
-0.022208251262437015
-0.15139034700270845
-0.2024980408017226
-0.2268228421173246
-0.13397136527218875
-0.055136936376264295
-0.1694947411416385
-0.19555963395466627
-0.22749355574925997
-0.05104382027062961
-0.16214972868156433
-0.1860899071762204
-0.14486827485999243
-0.1586049316790162
-0.14017896972601443
-0.07672644335462973
-0.10897736755453287
-0.18169505612664472
-0.1728284061406247
-0.16594008392820447
-0.10717303483569994
-0.10586545999124032
-0.14037131375904852
-0.11445668032047869
-0.08611889404398826
-0.06992904059297798
-0.1575428092006885
-0.1929844035367018
-0.1503064107828633
-0.035226280886279875
-0.17434058104264774
-0.20074398516996975
-0.05626012240112129
-0.1608466936537347
-0.1271761260519719
-0.07118660905919365
-0.09543218577009878
-0.13249726079444638
-0.158162600443977
-0.10229388129445162
-0.10143372931452084
-0.09727010908439364
-0.12945182013378
-0.16412467735637562
-0.02245600793339532
-0.1087309256234647
-0.11705043852764947
-0.08028555697592644
-0.07981163933849889
-0.10520390951061077
-0.09600481386372149
-0.09928603119360174
-0.05565354499737598
-0.04749506444765408
-0.0700963341852315
-0.037696278735225845
</DataArray>
<DataArray type="Float64" Name="v" Format="ascii">
0
0
0
0
0
7.619575432190813E-5
0
0
-0.0021234505532033115
0
0
-0.002442517166217095
0
0
-0.002590246771251841
0
0
-0.002523411079165992
0
0
-0.0019853722656182635
0
0
-0.002421409078799994
0
0
-0.003557629344123606
0
0
-0.006171460520313727
0
0
0
0
0
0
0
0
0
0
0
0
0
0
0
0
0
0
0
0
0
0
0
0
0
0
0
0
0
0
0
0.008225065238460448
0
0
-0.003113664069190169
0.024962853196976113
0
-0.0018423610781506314
0.03131294725245449
0
-0.0011334113679770104
0.016718172896075797
0
-9.579794897856599E-4
0
-5.536457245787135E-4
-0.018683156150714933
0
-8.442454776317401E-4
-0.0014831304777731295
0.028179381422778062
0
-0.0013573832036378067
-0.004081470014688411
0
-0.0017061593137780264
-0.03558991052145132
0
0
-0.0015421481020710373
0
-0.00484996138627558
0
0
-0.014029148068847698
0
0
0.0576600297405277
0
0
0.003811192726506567
0
0
0.0046828548547543335
0
0
0.02174720814925685
0
0
7.09314889124867E-5
0
0
-0.025984995462304806
0
0
0
0
0
0.039745698594812945
0
0.019504321187081952
0
-0.003220188383789004
0.036763670075806366
0.00875859228862655
0
-0.001212313285304478
0.025566413411009917
0.015931370966883778
0
-1.3605094126945122E-4
0.045598082891024044
3.5574214133947365E-5
0
0.010313780626727194
0
0.02041301319319412
-1.775566694815736E-4
0.01637131449899287
0
0.019115610921889643
-4.484361137498394E-4
-5.3531283946735E-4
0.046073141631789966
-0.03046935631197874
0
-4.708935211202641E-4
-0.011548030260829156
-0.022484610318058665
0
-0.0013132359633380444
-0.026826236153555828
0
0
7.846371411289552E-5
0
-0.004807202819258143
0
-0.0010890327876491848
0
0.01937399533482488
0
-0.0552741468758676
0
0.014758236838136601
0
0.016691965821929125
0
3.308092164578911E-4
0
0.019646801719401422
0
0.006733913014136997
0
0.05185613590389871
0
0.005343716571463194
0
0.013122995029710186
0
0.03508285734620508
0
0.016407306457674072
0
0
2.0057743754072597E-4
0
0
0
0
0.021446886482506866
0
-0.04017779592790979
0
-0.003360141034243897
0.04236621269902708
-0.018378675557352012
0
-0.0011968710865287726
0.018055337325130105
0.02530627577442439
0
-4.8093079216215826E-4
0.036146253951023964
-0.026816378048563513
0
0.015310023224731665
0
0.04145286226349157
7.962525020143779E-5
-0.015935529762354312
0
0.028613246100451423
-1.1088354338671689E-4
9.329075024847895E-6
0.02398243517926145
-0.012279103946600733
0
3.2101575194125055E-4
-6.79367711454179E-4
0
-0.044734041117867857
-0.0010502141750342016
-0.040782689886071144
0
0
8.925512233235823E-5
0
-0.0013264774384668667
0
-0.06769033149698982
0
0.018426669524271796
0
-0.0691421749148806
0
-0.014791719108571468
0
-0.042029414144257767
0
-0.00617437512433422
0
0.04843343005029668
0
0.004926022885471794
0
0.05922360785606152
0
-0.02707599507605837
0
0.020595271452077745
0
0
0.03621508112986657
0.02343539162966683
0
0
0.038675573696437364
0
0
0
0
-0.008954013919540815
0
-0.018109423116870634
0
-0.003691038597806484
-0.029318934378252382
0.006469971784333523
0
-0.0013491495700298243
-0.02118723144540186
-0.015296826174347153
0
-1.2401291558222552E-5
-0.020988450159438968
-0.007778639426799276
0
-0.019345897606651893
0
-0.007545610542084801
8.567414833612952E-5
-0.02008089595264601
0
0.0076421002666316
-2.6702152509219E-4
-4.76690177133148E-5
0.0018622007896361512
0
-0.030746698452572937
-2.3699866996962E-4
0.042880586411530364
0
-0.00748472429575097
-0.0010320165058525749
-0.009537552110997436
0
0
4.542834882403377E-4
0
-0.008653235221436488
0
-0.04867444596639733
0
-0.004326313587903543
0
-0.09363197224563496
0
0.016483038305699454
0
-0.05313188045473247
0
-0.01701105268231923
0
0.04280427018810998
0
0.008529086396073369
0
0.02589776342463711
0
0
0.029225410800418992
0.012047259227068096
0
0
0.056667146385640056
0.008281967353777833
0
0
0.05188013249111698
0
0
0
0
-0.07007943227446377
0
-0.014775028051351372
0
-0.0032303845033492267
-0.08846905472913075
0.0051096909435506535
0
-0.001149944022462688
-0.025954600584554885
-0.01800872958342785
0
-2.1651732326000148E-4
-0.05004895168635734
-0.01598216997574003
0
-0.031375155966815026
0
-0.017388252775793683
-4.8028708192952857E-4
0
-0.03697985129408629
-0.012558402968469934
1.5096909783438072E-4
4.131354228077504E-4
-0.013091167907334828
0
-0.04188458730465691
-1.9930749502070308E-4
0.003359001716482106
0
-0.020737997326476118
-5.351622819919321E-4
0.012397982256107993
0
0
3.011092435104383E-4
0
-0.015199941480372898
0
-0.09186611525611316
0
-0.01898283978997573
0
-0.09706532820904575
0
-0.015079040876858367
0
-0.03239890145961911
0
0.013761292108229796
0
0.0018039682833248386
0
0
0.024827387619989146
0.021916873611984685
0
0
0.061451398095353695
-0.02112025313138233
0
0
0.06356232956309577
-0.029039219177756353
0
0
-0.0015271408354566418
0
0
0
0
-0.12215565488176329
0
-7.736570696204171E-4
0
-0.003952149792405413
-0.0728150546271069
-0.010488249793352942
0
-0.0016349560572213862
-0.02317929685621956
-0.029884785426433125
0
-3.2538218615576006E-4
-0.0021106682629008586
-0.03797298204593368
0
0
-0.05493470385019547
0.00845233464858858
-2.5395883058845417E-4
0
-0.034013686304636054
0.01958218605082368
6.407955478511306E-4
-7.380156243062157E-5
-0.031791195973393784
0
-0.047314198283643714
-5.445983257159927E-4
-0.06378250825091335
0
-0.017360799743927405
-0.0010959040853824316
-0.007057065630778366
0
0
-8.893545584833891E-5
0
8.383411210551897E-4
0
-0.12204508527760134
0
-0.03217245162916196
0
-0.06601369888142063
0
0.027552364811969095
0
-0.05703867686165174
0
0
0.014100078208546751
-0.010676592738562779
0
0
0.05861013227457091
0.013515383739376045
0
0
0.04430351524311172
-0.03848587285148796
0
0
0.04301030806110251
-0.027921732238539766
0
0
-0.03610233584010966
0
0
0
0
-0.08737988571301968
0
0.016851639223230686
0
-0.004929313560336457
-0.07776630334418183
-0.008804166642107376
0
-0.0017662132464534087
-0.06769199349730919
-0.011365659479451206
0
-0.001188674621013687
-0.04588274722060611
0
0.013283021129502727
0
-0.053163828370037
0.02138563349822227
-0.0012560609128727219
0
-0.054915386705083565
-0.003230396284324698
-7.157237544031448E-4
-0.0010333143271969247
-0.0025385219297854524
0
-0.0061573004773746755
-7.192652526928148E-4
-0.06978379329324814
0
-0.031110919404123888
-0.0012867317373624462
-0.02860548966614174
0
0
3.0743629758544626E-4
0
-0.014831525976967836
0
-0.10243585191064142
0
0.01791361069833475
0
-0.03505892742471958
0
0
0.008679846869865263
-0.018617409451323678
0
0
-0.009737275027698005
0.015732820145612378
0
0
0.04364063153556377
0.018975356792772336
0
0
0.007851335428828902
-0.05203941858284552
0
0
0.016781308159655766
-0.052244671859570956
0
0
-0.016179083613675888
0
0
0
0
-0.08803479799621033
0
0.027155647319543442
0
-0.008318387352157413
-0.08709552106188205
0.020106425468408448
0
-0.0040697565272102484
-0.046948196560410514
0
-0.028378508890728165
-0.0020739693529232316
-0.02532369943485165
0
-0.006636605448566976
0
-0.07197681644029429
-0.017584886398293035
-0.0025134840285450243
0
-0.002975769566732359
-0.005941929451402542
-0.002405373526571708
-0.002729168093387906
-0.038615082247065786
0
0.0393052142850229
-0.0022675127807051947
-5.537349444334432E-4
0
-0.00782088918652766
-0.0023124105072742157
-0.0387309336587722
0
0
0.0015420357484556282
0
-0.02328420643397573
0
-0.09350029578326734
0
0
-0.011233927585476138
-0.08123976265985151
0
0
0.03266936160744035
-0.0022836398574104916
0
0
-0.0020741632143690962
0.047177200598771264
0
0
0.017663754303634854
0.03939013120440979
0
0
0.01769456003520004
-0.023333262247452465
0
0
-0.026116139848437567
-0.06414198034815223
0
0
-0.023936926475458708
0
0
0
0
-0.11235346713577586
0
-0.011416087630605176
0
0
-0.032212119434174985
0
0.0034368742559689846
0
-0.003147034672880951
0
-0.011903768203045282
0
-0.0034372055113863985
0
-0.022575311806895162
0
-0.019971015032392028
0.0023059418110118533
0
0
0.0072639789424284356
-0.026672432780773955
0
0
9.022591910371362E-4
0
0.009562949126872342
0
0.012960057835918283
0
-0.003041324899132966
0
0.007905139760320116
0
0
0
0
0
0.027549008681928142
-0.07114173686540524
0
0
0.011186372969977605
-0.029576982137076376
0
0
0.04299069302768355
0.003456409281895159
0
0
0.028075776271472386
0.03222608424896423
0
0
0.03478089501945195
0.040647922830676524
0
0
0.05257443072091091
-0.018518437463407696
0
0
-0.0061769567416517695
-0.009988317962895225
0
0
-0.009799942309030639
0
0
0
0
0
0
0.019025712652288144
0
-0.05512785404545853
0
0.002406726373015692
0
0.0012964353695982046
0
0.013367959174249584
0
-0.016644649281886807
0
-0.03837607791941832
0
0.011445933592423666
0
0.026509159994138175
0
-0.00525832987195585
0
-0.02386007857593754
0
-0.027359700778327823
0
0.029836947661426267
0
0.016644262728374996
0
0.009876853948234683
0
0
0
0
-0.003901949517500077
0
0
0.022414093602532423
0
-8.603170194148103E-4
0
0.006884974398753122
0
0.010455385077401923
0
0.041914668990014864
0
0.005751408293112132
0
0.037126570199557424
0
0.011160530494626265
0
0.024921681630117144
0
0.021173488300698998
0
-0.014814090400980126
0
-0.0018670622420105532
0
0
0
0
0
0.0329557527728059
0
-0.003787644704324285
0
0.011077199360114677
0
-0.010910398219165625
0
-0.0067171727575138515
0
0.01613654808287261
0
-0.032330008716481166
0
0.012128295189859603
0
0.032816584957310886
0
0.002325669904190308
0
0.016463798413433987
0
0.014489504093916824
0
0.019475337002056906
0
0
0
0
0.034378346431585514
0
0
0.03992305163485089
0
0.020509026696510155
0
0.009334486384580796
0
-0.01257850551031908
0
0.05279579469594556
0
0.029788654038986662
0
-0.010173038362355889
0
0.010413343653191775
0
0.010295061334397289
0
-0.0012385483667239844
0
0
0
0
0
-0.005226004339343258
0
0.027952097495342294
0
0.06904737358686182
0
-0.007445666718035146
0
0.004055593726414637
0
0.015061790757857277
0
0.06353684716470422
0
0.014332977854706825
0
0.01530084244819369
0
0.0056901371262232945
0
-0.02153636587406382
0
0
0
0
0.05652112467428525
0
0
0.06828448605625394
0
0.030303674736529434
0
0.007031060196934835
0
0.007017946085679961
0
0.02015519324104675
0
0.021642695958627275
0
-0.02069508149830447
0
-0.009743123071537319
0
0
0
0
0
-0.04809903573172223
0
-0.007298203757482027
0
0.016968215696096838
0
-0.021630015405185957
0
0.0527191361161182
0
-0.021899435964024758
0
0.047374250095397745
0
-0.012797605995001625
0
0.016648262922217535
0
0
0
0
0.059350270530243325
0
0
0.03350565792762598
0
0.013879755457787192
0
-0.010322632402622435
0
-0.01655869554676115
0
0.00556288866539692
0
-0.018271665607238755
0
0
0
0
0
-0.0281802779538077
0
-0.019703401523982325
0
0.005615226261426135
0
-0.007671044686855752
0
0.06179787573780617
0
0.014910176803191158
0
0.0029625112003570085
0
0
0
0
0.040964174355234945
0
0
-0.01477225553209995
0
-0.027587449023716834
0
0.009085835907916064
0
-0.009236073355027455
0
0
0
0
0
-0.016545923519795797
0
0.0021926091324577794
0
0.03488339003116637
0
0.013723058128046549
0
0.007271501623454802
0
0
0
0
0.018614852928951944
0
0
-0.008665865603660387
0
-0.007893329069899093
0
0
0
0
0
0.023840397163203294
0
0.02372567747328759
0
0.008866428333143652
0
0
0
0
0.010947903395583526
0
0
0
0
0
0
0.018774147551606266
0
0
0
0
0
0
0
0
0
0
0
-0.0077280023630916265
-0.025304692662159442
-0.00810383266334169
-0.0010611230906438151
0.009690560953298651
0.01946072904514656
-0.03054601204879707
-0.045518822493371795
0.018785841698946412
0.017263950891289
0.030034621222901892
0.005241656608337249
0.034837531777783065
-0.02890003646591081
-0.04300337101579074
-0.04464929573099386
-0.024203766450740256
-0.05869938597216875
0.02444896479453927
-0.008477613613858521
0.029230089011559
-0.00936608608964038
0.0012542756209738095
-0.058401347859068746
-0.004814503707822674
-0.00997622060374295
-0.017553202820373207
-0.06494509478327616
0.010648418557996973
-0.0011673129416984998
-0.029446271105221095
0.04397722149407656
0.012250461076409645
0.02151803994618867
0.02501776722272471
0.0068387065630024215
0.017305431440397753
-0.043094519402833015
-0.04094028120397509
0.01848019358124721