<?xml version="1.0" encoding="UTF-8"?>
<VTKFile type="UnstructuredGrid" version="0.1" byte_order="LittleEndian">
<UnstructuredGrid>
<Piece NumberOfPoints="1331" NumberOfCells="6000">
<PointData>
<DataArray type="Float64" Name="u" Format="ascii">
0
0
0
0
0
0.6292182485510375
0
0
0.7636501668752284
0
0
0.7868363989278526
0
0
0.7902575950896046
0
0
0.7907088252344264
0
0
0.7903822285503549
0
0
0.7907827257694154
0
0
0.7807145349000288
0
0
0.6546851367303026
0
0
0
0
0
0
0
0
0
0
0
0
0
0
0
0
0
0
0
0
0
0
0
0
0
0
0
0
0
0
0
-0.19340263650410527
0
0
0.7736342356293148
0.12864393090064888
0
0.9298405620664153
0.19293240508812085
0
0.9563827991133205
0.23646002982806125
0
0.2704600152809214
0
0.9609812364307472
0.2848678967861558
0
0.9609916670838702
0.9606866355432951
0.25073155979231004
0
0.9575944071347761
0.14516088893533793
0
0.9334964639698325
-0.031201797752742014
0
0
0.8010290418217908
0
-0.12413709332216348
0
0
-0.09140315237418066
0
0
-0.033647745302028
0
0
0.037733903224434255
0
0
-0.0049867250916408624
0
0
-0.023716931473132863
0
0
-0.009788114135902743
0
0
-3.8609834539009275E-4
0
0
0
0
0
-0.18847481090577087
0
-0.09812228037249905
0
0.8008960315611767
0.1273761303070837
-0.0707543267405199
0
0.9605936845108048
0.25111766078876374
-0.09383159577467533
0
0.9878141932368935
0.2790923645146164
-0.04421914490714297
0
-0.01996818258886031
0
0.36535721219568035
0.9922186286327791
-0.03810306640943448
0
0.3635201421806544
0.99210291987703
0.9923448838241415
0.2965342211082147
-0.08393051617472841
0
0.9879783719178635
0.14552265330946082
-0.06436332592721067
0
0.9636354038060889
-0.01483460216527908
0
0
0.8136098629175362
0
-0.11467381932302038
0
-0.14139168445542913
0
-0.06257496855121379
0
-0.08119016122767397
0
-0.02374408197928836
0
-0.008432812276323474
0
-0.006037709648569911
0
-0.009577569770850695
0
-0.01942986810470633
0
-0.03708732346250951
0
-0.00804858175231781
0
0.015148917695574861
0
-0.0020357837180462117
0
-0.02453333582797641
0
0
-0.003633882147199789
0
0
0
0
-0.16085169980017866
0
-0.12583864450226076
0
0.8057132227566034
0.1650015856872996
-0.14192787371045104
0
0.9660084266697168
0.2999026177670394
-0.13922507498291378
0
0.9931966560377384
0.38145976269624504
-0.14932558904719204
0
-0.1445115847018075
0
0.37961188651451033
0.9978096370874673
-0.07986045198799264
0
0.40153678129520837
0.9983105002797198
0.9977433605109227
0.3212715919757381
-0.03428813150217181
0
0.993450188058557
0.1669906520309471
0
-0.07203155386960038
0.968303347309213
-0.0495782601678769
0
0
0.8140598849408517
0
-0.10240658705574641
0
-0.14482372720859885
0
-0.0897791860126211
0
-0.1123058335728221
0
-0.013913904421674894
0
-0.03897521900027622
0
-0.025640066589592735
0
-0.04213500577598995
0
-0.034476709543891815
0
-0.041736760707170445
0
-0.019074489623366706
0
-0.027035616658896654
0
0
-0.01565503239520427
-0.026507949976469467
0
0
0.0018921499788603772
0
0
0
0
-0.1752940456312143
0
-0.1401730774826158
0
0.8068380467638961
0.18136533353427808
-0.16462141505349367
0
0.9674532822463054
0.3542042053076686
-0.1087030333226604
0
0.994648076961663
0.38708762031807104
-0.12317918873245896
0
-0.07235990231666876
0
0.42922106187812564
0.9985039168636849
-0.01947987424703101
0
0.40638749279188535
0.9989560449341112
0.9989673200438918
0.31844348491990454
0
-0.07301888556630537
0.9941890428058234
0.18484939000415268
0
-0.04612552090551381
0.9681685171610076
-0.00925509904325164
0
0
0.8139126342298618
0
-0.10479471667561598
0
-0.125892980451261
0
-0.05620386618378936
0
-0.07706302003576514
0
-0.04532199043021648
0
-0.050981288298211046
0
-0.06296501102725084
0
-0.05357527745534573
0
-0.036928745847828265
0
-0.05545491458881183
0
0
-0.03504767462008344
-0.02421447479104759
0
0
-0.02260869647433321
-0.036741076479320685
0
0
0.017468624677851426
0
0
0
0
-0.21017997061803684
0
-0.13601562538265025
0
0.8069474907413295
0.1862300091485745
-0.13856732578631195
0
0.9667809355517795
0.362156834603901
-0.09451034864140119
0
0.9933149794952106
0.4320527516041159
-0.06575806073442464
0
-0.017278961399411392
0
0.4318421260122116
0.9981744904045952
0
-0.04558029922472153
0.40172000038390726
0.9985538643291475
0.997983019990229
0.30623380674995454
0
-0.03872875119888744
0.9935614494262738
0.1783606573485814
0
-0.03776378211181911
0.967348749191027
-0.029147554440573226
0
0
0.813419718899218
0
-0.08664334183746475
0
-0.12763801550936507
0
-0.06084379681860064
0
-0.04124725471437828
0
-0.043115483968727546
0
-0.042086095451146936
0
-0.04706463769392369
0
-0.047027748264075936
0
0
-0.062308034823778634
-0.03138016144658043
0
0
-0.048275466997112625
-0.009626044286132592
0
0
-0.03589728149937798
0.011832953208683638
0
0
-0.026740734893893756
0
0
0
0
-0.16401384367120023
0
-0.09483750889593033
0
0.8065482384444033
0.14163904443611267
-0.0920999468100438
0
0.9628897645408224
0.28729624943288834
-0.050624614964875546
0
0.9882073897546507
0.4016298584846894
-0.0044973608645345895
0
0
-0.06398678446655315
0.42214759339757885
0.9924851378849903
0
-0.019563779176094188
0.38380196754762447
0.9930834377906806
0.9925943596885953
0.3216084180438115
0
-0.08139570127925809
0.9879085297056632
0.14566165081296478
0
-0.05804210332611868
0.9618641947266687
-0.03637212774867838
0
0
0.8083953362302457
0
-0.07809954855795766
0
-0.1519672768432558
0
-0.05059434189975239
0
-0.09008827617201515
0
-0.02497216122471856
0
-0.04596780589964577
0
0
-0.036249866427922724
-0.05982034018020362
0
0
-0.04207922078948268
-0.03483625061743734
0
0
-0.010373782268153884
-0.02077446843128493
0
0
-0.0033236155160718274
0.004345195284329414
0
0
0.015427768169273217
0
0
0
0
-0.16882646313315416
0
-0.07296169190563373
0
0.793338155952407
0.19587408410922358
-0.0418912655972239
0
0.9327317424430924
0.33004209891984176
-0.024336187254242362
0
0.9579167018891788
0.4041378238265659
0
0.013404170885801871
0
-0.03834187080500195
0.42731999811415217
0.9612013740652087
0
-0.04518836907036908
0.402884690946882
0.9610148506763477
0.9605524182383219
0.3434737406052635
0
-0.08026911259538488
0.9561012392092286
0.2147673913735325
0
-0.08717709916723021
0.9309840740671818
5.641619922434602E-4
0
0
0.7811371713464191
0
-0.04647769387128755
0
-0.136482227746786
0
-0.005281237411942501
0
-0.14268070734468583
0
0
-0.04998935852086986
-0.05619300890952573
0
0
-0.06627188404566843
-0.017522648799246903
0
0
-0.018034902707428416
-0.03914211455757698
0
0
-0.03450090744117495
-0.004549562259822895
0
0
-0.022125295102118067
0.002707362441752589
0
0
-0.0035978532305361954
0
0
0
0
-0.1800837572549433
0
-0.07358051746906467
0
0.6474097380636535
0.1746544944588927
-0.0206770029869795
0
0.7809673227679205
0.30827829898074044
0
-0.00560969242618782
0.7902155263508616
0.4030819407717489
0
-0.03183337476890361
0
-0.00978199950214262
0.37859179137556503
0.7906486272447807
0
-0.043154650419082036
0.36867376888734066
0.7907847530549796
0.790459091977186
0.2842309049081884
0
-0.056358842228203386
0.7867846384377818
0.16554602038280242
0
-0.07336447851007061
0.7648463797852098
-0.045287925834319724
0
0
0.6362010835108594
0
-0.032191553957173887
0
-0.14852015471126115
0
0
-0.039488892237229595
-0.12304702086528473
0
0
-0.024145763705729854
-0.05431409642748583
0
0
-0.0363284857655872
-0.026973075929514437
0
0
-0.06375732516280518
-0.0278492595685198
0
0
-0.044020896047085596
-0.04799745671846999
0
0
-0.004499180488425959
-0.02366783235413046
0
0
-0.035857930459563515
0
0
0
0
-0.19963545754674783
0
-0.011051605501999656
0
0
0.08563897771455385
0
-0.027206934179473743
0
0.18746485167695945
0
-0.01078977632782077
0
0.22802013400233354
0
-0.00828973426330423
0
0.008516820870802098
0.27550135575812607
0
0
-0.03712076320689595
0.2277364938480024
0
0
0.1649414146055993
0
-0.04977839592188472
0
0.06395745972271054
0
-0.07391074364566987
0
-0.06719550944421517
0
0
0
0
0
-0.02536770402456305
-0.1401873685267239
0
0
-0.017541365968316288
-0.054721367192123616
0
0
-0.0621518111269966
-0.024963798286477396
0
0
-0.048999971853309836
-0.020705224027048056
0
0
-0.04364356978571207
0.012722770309506673
0
0
-0.033933979844139366
-0.03197739412098955
0
0
-0.04893636996288029
0.00773480038463679
0
0
-0.01712770245308239
0
0
0
0
0
0
-0.013372859699809109
0
-0.12954030426103977
0
-0.024239579935565816
0
-0.1011998880266622
0
-0.01871640910768597
0
-0.06553026930417484
0
0.022792082807950073
0
-0.02510304358521635
0
-0.04709992493339743
0
-0.06778315826895896
0
-0.04357104504791997
0
-0.08266060968051937
0
-0.07163490965659867
0
-0.10752128781659104
0
-0.06901943908654219
0
0
0
0
0.029499944904447822
0
0
-0.08202089356399185
0
-0.08450260562013144
0
-0.060754418433421886
0
-0.054463912090543715
0
-0.05349832989387051
0
-0.04806253603830179
0
-0.031183615615802285
0
-0.011580311306080374
0
-0.025193066560170656
0
-0.02639400704557039
0
-0.027195237958723487
0
-0.01482888069453577
0
0
0
0
0
0.026651468470212703
0
-0.13080561237540497
0
0.006685237377476008
0
-0.10794612741628697
0
-0.04256801007131569
0
-0.05712793252528165
0
-0.012623303135471449
0
-0.016861827868049687
0
-0.04815038523191798
0
-0.05169620822272571
0
-0.09713034659518809
0
-0.09350801044752438
0
-0.02762126820842371
0
0
0
0
-0.010505499591526886
0
0
-0.04462399761720026
0
-0.09146773872618129
0
-0.05496046039827653
0
-0.07772886663003863
0
-0.03046861571195388
0
-0.08482065339313322
0
-0.006941141398398399
0
-0.05761506302608963
0
-0.018860821584372727
0
0.0037720268787753467
0
0
0
0
0
-0.028938000093729193
0
-0.08045418609400602
0
-0.01890112842028378
0
-0.08199961866897774
0
0.0020093209096714113
0
-0.09645626791591372
0
0.005137294524338739
0
-0.019792948333999364
0
-0.06754744614720255
0
-0.016511527811182754
0
-0.06338862229590904
0
0
0
0
-0.020283237491000406
0
0
-0.055710853086634836
0
-0.08134194208423247
0
-0.05455658037917057
0
-0.11276421540841954
0
0.004214097551084974
0
-0.06665358231931727
0
-0.008249458835642097
0
-0.004320819286113122
0
0
0
0
0
-0.007306160533567131
0
-0.07154824926257336
0
-0.025326866858682833
0
-0.07977023289898712
0
-0.009319505794944534
0
-0.05052516551322885
0
0.023497153481751226
0
-0.0073051199041542425
0
-0.01590933478300033
0
0
0
0
-0.06951958512779505
0
0
-0.04897150172085408
0
-0.07222723510620253
0
-0.013695075458859564
0
-0.07010040474838775
0
0.017451221842799684
0
-0.011107922960480464
0
0
0
0
0
-0.03766468707582072
0
-0.04433479292289208
0
0.013198045573463173
0
-0.0228368416198567
0
-0.018647100054894224
0
-0.034137193240973425
0
-0.033422467953477704
0
0
0
0
-0.03781505430176434
0
0
-0.03779743244140829
0
-0.059242579223245086
0
-0.020852212828312275
0
-0.03989444246893245
0
0
0
0
0
-0.02052604174470539
0
0.004792558086782959
0
-0.023470247797799337
0
0.021358809592180842
0
0.001820508211834778
0
0
0
0
-0.0733823435427043
0
0
-0.036285866916006666
0
-0.041875078146629156
0
0
0
0
0
-0.019115437158794366
0
-0.034829849763740955
0
-0.011797067162570321
0
0
0
0
-0.045283045733021526
0
0
0
0
0
0
-0.016698747038699058
0
0
0
0
0
0
0
0
0
0
0
-0.15877373883951726
-0.12912081542521345
-0.1252775728320681
-0.10586753229515472
-0.08169659192500987
-0.07899280980920548
-0.1042905876394788
-0.13018711190974694
-0.08452662302351283
-0.05150857301886958
-0.05849718147902997
-0.005199301456659363
-0.04984235065364115
-0.15435155115400392
-0.20200074873385324
-0.09955506008786495
-0.22369110386329186
-0.0323135712841803
-0.2535241135848147
-0.010466400448144732
-0.28318292911558784
-0.18080238750378982
-0.0207140502334156
-0.1184596999884288
-0.045466897926835635
-0.08455959091010956
-0.1596439440250643
-0.1644228911836042
-0.07637450848167297
-0.14444662808617317
-0.0729825881297232
-0.07955923901704405
-0.04369958097533554
-0.08109431476929822
-0.061914836611903945
-0.021085903120987567
-0.04194832514477831
-0.08987588593198038
-0.1596705454497086
-0.23550733013704758
-0.004314434636298307
-0.2192491104665043
-0.32356631326560154
0.04138009507507546
-0.20217908936814857
-0.28678949402876763
0.03578122359934263
-0.16838940548705186
-0.19861328435122963
-0.11336570638168982
-0.15445900456415676
0.04312892132391577
-0.11030355611328645
0.005395154367215326
-0.07326261695633131
-0.10152929958471396
-0.21020219723687109
-0.1625890591874909
-0.0919751933578747
-0.13880081294130878
-0.12603280356032076
-0.09206810011356618
-0.14280080925166064
-0.1123499057726088
-0.08917165469054102
-0.05744552871536784
-0.0964070308780746
-0.04370066986734133
-0.047913936645903286
-0.058244881474718076
-0.051192293442628094
-0.16324828964184054
-0.25272354828218807
-0.18974180269008298
-0.005919924874521253
-0.14079349432988322
-0.2599426355881255
-0.18405227005906347
0.016890451877708452
-0.14105924502884426
-0.20833550560151168
-0.17201755210848593
0.05955626234073531
-0.17404204102219778
-0.1561396904016604
-0.10846057807264085
-0.09535818718979748
-0.18387342661663877
0.06785062353924293
-0.14752157860919446
0.024071094451684746
-0.06966372450159607
-0.15158316721466447
-0.18434383621561237
-0.21922750586572634
-0.1187238807097565
-0.12267914911894846
-0.14730464395782397
-0.14184276216855038
-0.07583057505527507
-0.0924658012646498
-0.08850020144722713
-0.1321251790818119
-0.09064437623502669
-0.07558633909885137
-0.07435107967821424
-0.09453984170086821
-0.06167271743026633
-0.04713641117864856
-0.019766488036138345
-0.12050231083092615
-0.1484657651878315
-0.17440705458404046
-0.21754229314730011
-0.17059617221300097
-0.07528246633386161
-0.17648335059243003
-0.1871587978566455
-0.19623848683943027
-0.1258794940272789
0.017481466746982716
-0.1635368900768718
-0.1987156767868371
-0.1616391469389801
-0.047044366862839054
0.012264027998942406
-0.14607733403575515
-0.18419832229360666
-0.11377074930071616
-0.12084199565051519
-0.1619361396711595
0.016608556498757584
-0.16913513700113636
-0.050806002185182476
-0.0589028384719999
-0.14450728346880173
-0.15647097991139172
-0.17960321632965492
-0.13139006340494155
-0.16877091384624257
-0.09031869844078912
-0.11302316464072783
-0.17210517861567845
-0.1307832900437211
-0.08950078814437258
-0.08618726412659773
-0.06851826990985256
-0.1286779907847504
-0.12919513586013573
-0.042695804480521356
-0.08559878865335892
-0.09938699590904214
-0.06958721992007354
-0.04286906831690465
-0.032150720659570246
-0.13475139250189996
-0.1554404528064115
-0.15423084336931756
-0.19713933079996573
-0.15714980748928611
-0.12191216112879387
-0.039913050006593176
-0.17930760949045246
-0.17790533820843202
-0.19267915272835592
-0.11459354546099136
-0.05928772529583289
-0.014802460258364238
-0.1555143287724308
-0.21733879293049888
-0.15702704599056846
-0.07566867510006435
-0.018498741188547677
-0.13627263915971624
-0.1656586781745557
-0.09859198199431314
-0.1247627243745737
-0.10598456131632573
-0.012958256759099195
-0.10356806591945715
-0.03178076287483252
-0.07502778947126583
-0.09411696684651943
-0.1073967267898272
-0.14849170765394562
-0.13547179962154873
-0.11843458768764405
-0.20458760928299738
-0.10142256368810826
-0.08998650521027395
-0.15707403084349456
-0.10729010379326392
-0.14980040784348325
-0.06943018115871057
-0.11155725292522185
-0.11826758398421215
-0.08350349716221112
-0.08220225095544963
-0.06413144142520537
-0.09879725714865638
-0.04555127059623688
-0.0764181058604882
0.0011927645797329132
-0.11312661065244223
-0.1813341169026055
-0.13907267757547845
-0.13908738998785483
-0.14950342393035687
-0.07428022269650912
-0.049033502662099514
-0.06371307969106493
-0.13746199900342124
-0.17565743483034402
-0.18927150071753174
-0.13244410932070358
-0.019873784372255846
-0.02750052883987483
-0.11578694717970171
-0.1372814200960701
-0.1469819043858354
-0.06660093563877949
-0.013587913732418543
-0.12602111428439058
-0.12018225519836088
-0.07238126344677659
-0.10285353947070582
-0.12277250427520577
-0.04249798140548097
-0.14905620491877195
-0.048635641213587245
-0.10015139721111989
-0.07958331081081815
-0.09656373122832963
-0.16091830454708667
-0.13127412373564665
-0.16506387344420667
-0.16300805373864116
-0.11367092808763392
-0.09103607608079418
-0.13947734133751533
-0.13492249899702605
-0.10219013053868992
-0.08629763613611986
-0.1040051201055308
-0.1439061104633104
-0.06895052199250601
-0.07718824624851356
-0.11606140627642857
-0.08278918540533103
-0.06712813680757689
-0.07353993448242611
-0.09551377557272396
-0.17508539708751414
-0.15018448938984583
-0.1518054530167
-0.16553925417971674
-0.08195457862108974
-0.05392714715995738
-0.1488026581527069
-0.1641295209766014
-0.1822732233025887
-0.10831789900520437
-9.524216914239789E-4
-0.13071897257038467
-0.16094248586302806
-0.15111231733971667
-0.023568996561664158
-0.12103865388378916
-0.19207919471551768
-0.09063016641874694
-0.1568293018832234
-0.15092964853701882
-0.13257417958748988
-0.060949219616392776
-0.07582724913503379
-0.16305463545634022
-0.12237107856440956
-0.13225395635557916
-0.048741071002121224
-0.1155841618963742
-0.1466551682743994
-0.09848347580558355
-0.08869089943574776
-0.17396870126473288
-0.10532414218170992
-0.13077753817345808
-0.07767633498225578
-0.08803305629633945
-0.14175726964228583
-0.12375132915813496
-0.14642434838816912
-0.09197260277519483
-0.01768648471557011
-0.1452882622388185
-0.14731502728758358
-0.14425194813958975
-0.0435582380030701
-0.15329546312685768
-0.10086336560698032
-0.11490436821144544
-0.15742516339120008
-0.08744643408251761
-0.12882435464037864
-0.04730265066859707
-0.09769084910572622
-0.19001752793270002
-0.12948003149051526
-0.04612495731177246
-0.14681627189429133
-0.12976564905323593
-0.06074914547989297
-0.13255944960305396
-0.04613011188106842
-0.07855641307548149
-0.11155558440286069
-0.06818768973064636
-0.04140942763405395
-0.0979771498085746
-0.09235348191688698
-0.05908160166512847
-0.09906179287520799
-0.04354492365893123
-0.07772529704147325
-0.03353913262977163
-0.10118505346591694
-0.14200083997176713
-0.010444779601982805
-0.14454624485517661
-0.06374798151534805
-0.07593046531723896
-0.05372610975631745
-0.04302228568531107
-0.04666087030013181
-0.02324891745768198
-0.012229727155593085
-0.008005080937223989
-0.06060107446401284
-0.0633299447154869
-0.023825745454903572
-0.01619184749737756
-0.004856960828277124
-0.08755759146631471
-0.044886963969367984
</DataArray>
<DataArray type="Float64" Name="v" Format="ascii">
0
0
0
0
0
9.518239300273341E-5
0
0
-0.002043055510120369
0
0
-0.002506404540919021
0
0
-0.002134669538956306
0
0
-0.0028740194467681457
0
0
-0.0019695305746860836
0
0
-0.002040506939450422
0
0
-0.003729898509405164
0
0
-0.00634854458418158
0
0
0
0
0
0
0
0
0
0
0
0
0
0
0
0
0
0
0
0
0
0
0
0
0
0
0
0
0
0
0
-0.023518449016830128
0
0
-0.003045736084076493
0.02027661037299032
0
-0.0017782692009580164
-0.023939411189141346
0
-0.0011476217676681009
-0.008185474556244557
0
-0.013648234571865552
0
-0.001059615401419547
-0.01996164377161175
0
-8.703836242921556E-4
-6.223652104066342E-4
0.026776914913667436
0
-8.571841819740399E-4
-0.053692328964655006
0
-0.001811508811663123
-0.05860132845392332
0
0
-0.0015718061943498266
0
0.021944861674996808
0
0
0.008032708811240215
0
0
0.012458753239410448
0
0
0.027223655981891467
0
0
0.007764397340878239
0
0
-0.020566494036706948
0
0
0.02954418711869654
0
0
0.010839704223930664
0
0
0
0
0
-0.03914438414553825
0
0.032447261116990596
0
-0.0038909114638166925
0.012712970977342973
-0.012815679225457476
0
-0.001550359390703062
-0.030355527365227727
0.006116121412309799
0
-5.152548201770396E-5
-0.0010085070486970107
0.008612666476590916
0
0.014536022611892132
0
-0.008170382541463796
2.602011626686987E-4
0.0233893712184272
0
-0.040154267915576074
-3.3519435514930756E-4
-2.3384212050228527E-5
0.011019504659819039
-0.003932258664647765
0
-5.164214358426678E-4
-0.03389889362043542
-0.01214798670534425
0
-0.0013382072201299944
-0.026264941663527257
0
0
-1.975142429104047E-4
0
0.012075219486601008
0
0.07430269569661353
0
0.003505988422838127
0
0.029406865950041345
0
0.01865401520859899
0
0.05262400487336297
0
-0.027017869915578682
0
-0.011538405008527408
0
-0.007474083639768332
0
0.006743689612115162
0
-0.006648803323709402
0
-0.017882014671231017
0
-0.005509472314009028
0
0.05738558149690711
0
0
0.048196184566101426
0
0
0
0
-0.028300843800176206
0
-0.0011963265284929347
0
-0.0030258942529356003
0.039651928643097745
0.006313160158347515
0
-0.0010569752912412843
-0.026101237511445368
0.0289380519054221
0
-7.957408311123841E-5
-0.018834812856864114
0.015896906387610394
0
0.0012545987729979087
0
0.018203139088171106
3.9289191218528735E-4
0.018205707289328524
0
0.0364484757039056
1.104759154507628E-4
-6.014966583811114E-4
-0.013539651673142748
0.007746321130631432
0
-4.7996674481825077E-4
-0.048856402082823734
0
0.0026432163149408485
-0.0011832442827650225
-0.007071175893923338
0
0
1.8144402071723563E-5
0
0.005041338706510382
0
0.050430113401165794
0
-0.022983471619330023
0
0.0011182804997836098
0
-0.004568029244965786
0
0.05563898854165971
0
-0.006378994001716358
0
-0.016221811242415726
0
0.015349406077957553
0
0.0040246451611215305
0
-0.02077469451515657
0
0.006849199168868372
0
0
0.025920686017676536
0.04071517811495685
0
0
0.023828873390656532
0
0
0
0
-0.013386789885406312
0
-0.012201198158496455
0
-0.0035375453176588255
0.007201769123384274
-0.01367717977878097
0
-3.0954053027742393E-4
-0.008776910221085723
-0.03674589676476758
0
1.0256975679028732E-4
-0.031222505030162443
-4.907675861532361E-4
0
0.0022077502935522533
0
0.024236371668605258
3.2913929244625823E-4
-0.0023003404237285628
0
0.023735890862003745
-4.4691377152501245E-4
-1.1837742244178008E-4
0.056009014915011646
0
-0.007080632500976022
-6.548653350117772E-4
-0.004343068680088837
0
-0.017520260971771395
-7.002928361769064E-4
0.020110185101935792
0
0
7.21538895048622E-5
0
0.01792079992573031
0
0.004045312829304524
0
-0.01728443826769556
0
-0.0032499884309580827
0
-0.024434130171109996
0
-0.006980760557748304
0
0.003180602255482667
0
-0.01768866601554669
0
0.0010294072919144331
0
-0.012084535935496262
0
0
-0.014815010956352627
0.03816254055786259
0
0
0.010913439351384694
0.02197236799669489
0
0
0.02383631024908998
0
0
0
0
-0.01399556030079648
0
-0.0017050213246486154
0
-0.0035324668151295448
0.01575346899611678
-0.03081200522134167
0
-0.0015041584913644736
8.043326317618665E-4
0.023571523232989708
0
-2.9333946798803346E-4
-0.05155303510926169
-0.013673800796263237
0
-0.00937068264549948
0
-0.0129339463757357
2.841260484036668E-4
0
-0.04090462392669702
0.014911172969306033
-7.439248709232017E-5
2.980586993624295E-5
0.04560044460056121
0
-0.005731118529166589
-7.799017505270747E-5
0.004962340114969963
0
-0.018354564973880508
-0.001104627524587907
-0.006480646038340227
0
0
-1.0390096122404127E-4
0
-0.010652283834175184
0
0.0257596213103516
0
0.024832517194213487
0
-0.005439510852220181
0
-0.006998745797772554
0
-0.009101255985948806
0
0.01865195062601038
0
-0.027402568811088754
0
0
-0.022699649677289976
0.003180649120263807
0
0
-0.008371463978631468
0.008458991330068303
0
0
0.039621037092527185
-0.006082594914850774
0
0
-0.005902030576884351
0
0
0
0
-0.007660669739368045
0
-0.014074577441262897
0
-0.0036378105513579432
0.013066258170391866
0.0092340802970263
0
-0.0017436840712477244
-0.011935430486679255
-0.023334535982505056
0
-6.776504880982882E-5
-0.06220125510529551
-0.015968740371194907
0
0
-0.013764519744791539
-0.00583740583372749
-3.9423847374566584E-4
0
-0.023047130058905255
0.003736972145725992
8.849097460460554E-5
-2.857110158073897E-4
0.016294033746479215
0
-0.04429044172278654
-2.7808851215117733E-4
0.04255754033741276
0
-0.007167585266636015
-6.302404468819358E-4
0.027378831003219403
0
0
-8.00175283430953E-5
0
0.01591986519501966
0
0.010239946183338226
0
-0.008421502373367633
0
-0.005414918481948815
0
0.007117950601022824
0
3.9280484012237565E-4
0
0
0.04292503333247911
-0.0330955799023066
0
0
-0.004830040429677839
0.020008976210951757
0
0
0.02691136020374353
0.02031006207471621
0
0
0.04137165374434971
-0.011658507991703794
0
0
0.012907677487108674
0
0
0
0
-0.038737132474604426
0
-0.04427599352710763
0
-0.004899991512862028
-0.026641928144548563
0.002862308716254385
0
-0.0018563165775300943
-0.02332549358801729
0.002150562223713959
0
-0.0015337939513609333
-0.05974033008167191
0
-0.007913329205064913
0
-0.00497654959127233
-0.03122702198714225
-6.224154099246277E-4
0
-0.045443146052323885
0.013677288531623123
-8.227243487399198E-4
-8.796852282034908E-4
0.009612215007695156
0
8.148716293285633E-4
-0.0010125292633178823
0.007903503729656538
0
-0.0026005048863029113
-0.0013081832842984315
0.04547050568357527
0
0
2.0279355364830995E-4
0
-0.013840014464097265
0
-0.0072888447537279395
0
0.011071763422598281
0
-0.05929334213266032
0
0
0.01274119233350673
-0.025210457481922563
0
0
0.028287522040312967
0.008341051401588037
0
0
-0.03383880773544035
0.036282806094813706
0
0
0.009475425102653172
0.004516321361180087
0
0
0.012122631305829334
0.013003889070679819
0
0
8.57316157985102E-4
0
0
0
0
-0.02310900591027877
0
-0.03473590649697777
0
-0.008115347877410334
-0.05613488608616005
-0.016904681978238204
0
-0.004333880927044586
-0.03212575379868613
0
0.015944975387100494
-0.00229432337958159
-0.0428535427539214
0
-0.003947831050557603
0
-0.001901805895672244
-0.043952463868571316
-0.0025438943748388025
0
0.0025783758280572204
-0.014780912324802104
-0.002232232665274042
-0.0024348164878531748
-0.01064655850102639
0
-0.012280060217397767
-0.003016563864135589
-0.01362278577546167
0
0.0540839575868941
-0.0022653346885643305
0.02632195685838246
0
0
0.0016225125629391924
0
0.016473759086527536
0
-0.06206666086287659
0
0
-0.0016351941550395504
-0.06992304118221339
0
0
0.011431373159630116
-0.03970966295001089
0
0
0.03217692190309652
-0.015323911193482255
0
0
-0.020157324744174265
0.0027615605581652446
0
0
0.004336885143233244
0.006984382034696256
0
0
-0.04359681046640108
0.022428956752774187
0
0
-0.03113258430616032
0
0
0
0
-0.0655976570831698
0
0.04842903200551438
0
0
-0.019366952702822973
0
-0.002009454653797898
0
-0.019332064919699857
0
0.002604549038877345
0
-0.04953269451380762
0
-0.009100018597212019
0
-0.03283956577356074
-0.008402059716308809
0
0
-0.04377490293984912
-0.025869163836325686
0
0
-0.016843432341820327
0
-0.02973286486655687
0
-0.003780194895190219
0
0.016943808848318937
0
0.051769755446373335
0
0
0
0
0
0.017561543901800925
-0.03479959225774066
0
0
-0.007816995938845198
-0.005576630434518563
0
0
3.8346870161992826E-4
-0.010551884253754938
0
0
-0.011414064218001778
-0.03273494601963322
0
0
-0.025550698068908268
-0.006964397400953534
0
0
-0.026332741240201754
-0.005231807673579305
0
0
-0.03994629971519959
-0.02523938065692655
0
0
-0.01767370411717484
0
0
0
0
0
0
0.047422828789524946
0
-0.00785003701701494
0
0.030818397672569515
0
-0.01809201846887643
0
0.01207125950097323
0
-0.014852683127543528
0
-0.019176913273818194
0
-0.018832273983160785
0
-0.0018756871248472448
0
-0.02141491255824096
0
-0.007308534709972049
0
-0.009848139042526509
0
0.001248574566902801
0
-0.0022001410165890085
0
0.011322639227628802
0
0
0
0
0.03925229644812233
0
0
0.007299733036571723
0
0.023866223847272727
0
0.006520157651784864
0
-0.018440683384625674
0
-0.03155876493369126
0
-0.011321354150093728
0
-0.05685583767218313
0
0.01886780543707413
0
-0.008055508386654755
0
0.013575899220540257
0
-0.020241360498383598
0
-0.02087689033517333
0
0
0
0
0
0.036340622767909274
0
0.02711448201107348
0
0.012579117829237726
0
-0.010429591741078721
0
0.0107679201746341
0
-0.029609331600385622
0
-0.0012065247771767677
0
0.004037730114194531
0
0.029431643310454118
0
-9.300972178031949E-5
0
0.010391277457892013
0
0.012184836793185572
0
0.008344760829541784
0
0
0
0
0.06679362467102012
0
0
0.05529785079346752
0
-0.006016726124722964
0
0.010167448093839402
0
0.012354914796348338
0
2.66667757954877E-4
0
-0.015443670701826026
0
5.151544199095537E-4
0
-0.007243766509527579
0
7.484773308472216E-4
0
0.04186471008245795
0
0
0
0
0
0.005714496031365997
0
0.03782035454843058
0
0.01445661356081696
0
-0.012437059041224935
0
0.027357107446818893
0
0.01338187991322481
0
0.035488333265555526
0
0.03777572769366345
0
0.039197015456916666
0
0.006149845243825595
0
0.01125855526261673
0
0
0
0
0.06024846072707885
0
0
0.02994894252156378
0
0.017271578113682056
0
0.009176244765333961
0
-0.033841622856226126
0
0.013032728193945943
0
-0.03575842110572026
0
-0.01600367906589173
0
-6.06111210854488E-4
0
0
0
0
0
-0.020644821109889137
0
0.04836425663044822
0
0.016290064050115568
0
-0.004184298619574186
0
-0.00844585939002848
0
0.026806596655809645
0
0.02099131841685077
0
0.023665288105696947
0
0.015265738021273234
0
0
0
0
0.056624631258510506
0
0
0.03244017383444823
0
0.006812360454648389
0
-0.007913054387494435
0
-0.017924940441100438
0
0.029997245040811926
0
0.005529343261739413
0
0
0
0
0
0.012816857500361607
0
-0.001508127764621089
0
0.03535685188431969
0
-0.011270355346980038
0
-0.020856165230249926
0
0.020816373481833725
0
-0.0070272895022868995
0
0
0
0
0.025770417726299774
0
0
4.888252917497575E-4
0
-0.0134322748015697
0
-0.015128696280964013
0
-0.008204754606068345
0
0
0
0
0
0.01264949123875802
0
-0.006977522701186153
0
0.02569891344598463
0
-0.004588936350269564
0
-0.013838414626840649
0
0
0
0
0.017256180223175373
0
0
-0.03262029130536748
0
-0.007017688659956751
0
0
0
0
0
0.011618614892914332
0
0.0033498404454595054
0
0.014820693349600548
0
0
0
0
-0.0017116663482171356
0
0
0
0
0
0
0.0238240628218767
0
0
0
0
0
0
0
0
0
0
0
0.009801934225035619
-0.03031471434642234
0.018567662359157508
0.049386714563770535
0.028697120627960402
0.03967456019865864
-0.021185106342523904
-1.7045174311126982E-4
-0.0056488380248560085
-0.004504430557343575
-0.024135543127289206
-0.021325357388297553
0.005343401048327061
-0.03806481758378787
-0.021551896133663536
-0.00926975242469086
-0.04481505517329742
6.150079138778704E-4
-0.013405696249396006
0.05123556523756179
5.855923092752923E-4
0.023424537813027238
0.07228438813783587
0.015477902516052853
0.0568561710800042
0.011705109094012825
-0.018694113881289814
-0.055549838496534075
-0.029583373394473884
0.007952782675594813
-0.003551762283115901
-0.035243852225515106
-0.043496323825749535
-0.02800840164218617
0.011324100677712863
-0.007731913094052853
0.037366714075919634