<?xml version="1.0" encoding="UTF-8"?>
<VTKFile type="UnstructuredGrid" version="0.1" byte_order="LittleEndian">
<UnstructuredGrid>
<Piece NumberOfPoints="1331" NumberOfCells="6000">
<PointData>
<DataArray type="Float64" Name="u" Format="ascii">
0
0
0
0
0
0.629923865140242
0
0
0.763021757451993
0
0
0.7858111432824734
0
0
0.7897078493428954
0
0
0.7902761093689715
0
0
0.7906155749555456
0
0
0.7905896868573467
0
0
0.7812274883918046
0
0
0.6550361634613985
0
0
0
0
0
0
0
0
0
0
0
0
0
0
0
0
0
0
0
0
0
0
0
0
0
0
0
0
0
0
0
-0.212938299108445
0
0
0.7734999763152538
0.1716593517576057
0
0.9301336015405882
0.2824471124870413
0
0.9559960211286457
0.3378934496064945
0
0.322668023050233
0
0.9606279739270372
0.30021022744738873
0
0.9613271668112452
0.961148061098592
0.23962856380635622
0
0.957827182853528
0.09904603726881817
0
0.933661700587892
-0.04938180448335336
0
0
0.8009941580365
0
-0.1494287298902046
0
0
-0.10399340988262601
0
0
-0.05367931478974098
0
0
-0.01809510443856628
0
0
-0.01689900776205722
0
0
-0.025715005351147388
0
0
-0.03360077968773048
0
0
-0.012097973867162904
0
0
0
0
0
-0.18655291715881536
0
-0.123950678007875
0
0.8006001472152472
0.18862666641247036
-0.06312864888963617
0
0.960177005118108
0.32895412950303293
-0.0013957101632444192
0
0.9874282414725442
0.4111071957790607
0.010160968533504879
0
-0.007856546260560668
0
0.44891703584500026
0.9921719424394252
-0.04945412958131909
0
0.41148544860758146
0.9927179803012881
0.9915117812702512
0.3320170309481656
-0.10519407228766724
0
0.9881748863379035
0.19073741011019504
-0.0855230637439006
0
0.9637538606447903
-0.01422657071725812
0
0
0.8134135794511069
0
-0.12956725385008735
0
-0.142382210021839
0
-0.09313712862445929
0
-0.05867081917074166
0
-0.07467518728357353
0
-0.04221344739630331
0
-0.0654932092438565
0
-0.036700200484983486
0
-0.04580853948440269
0
2.3532091172605998E-4
0
-0.03660557994908086
0
-0.018946104012711792
0
-0.011381183433576471
0
-0.014978084981243084
0
0
0.026387965608587017
0
0
0
0
-0.1915889500289186
0
-0.15107829578503373
0
0.8057167414594334
0.18227454533070905
-0.15906456355856372
0
0.9658258905126916
0.3443785180694272
-0.14473672711532656
0
0.9934227816039526
0.4089328181187728
-0.13758054762093272
0
-0.0952383605319525
0
0.4645974406608458
0.9979964533446234
-0.09552571313064533
0
0.4390681410588772
0.9980554426982361
0.9978080754005086
0.3454056001283081
-0.033567034537141376
0
0.9938075893629025
0.16793392878078983
0
-0.046935707244671526
0.9681177028512308
0.006799818073289981
0
0
0.8145422720864274
0
-0.08519766783783254
0
-0.11434176212530882
0
-0.07776568969992594
0
-0.06266201799599595
0
-0.06954796684097203
0
-0.0724011418336694
0
-0.020958093964625776
0
-0.02335569795728408
0
-0.04135919774230946
0
-0.05968636527640392
0
-0.048187138738511964
0
0.009791499336180313
0
0
-0.003794401240686113
0.0012495957252768664
0
0
-4.946486162334779E-4
0
0
0
0
-0.1793952641119874
0
-0.11495288761112037
0
0.8066927243946415
0.1665190139139386
-0.14406284774924794
0
0.9674891888174687
0.2964999009999447
-0.15068099717342953
0
0.9944513403136832
0.3913992613165485
-0.09272940792363958
0
-0.03926570491376949
0
0.45247754444764016
0.998743906081396
-0.011623836227701112
0
0.4458371283011589
0.999116158363942
0.9983487887839294
0.3269620086718674
0
-0.052581000610195744
0.9942994516812588
0.17725108494560707
0
-0.07449610324359555
0.9680987201643491
0.0044822275614348215
0
0
0.8145047543346172
0
-0.06390308570539543
0
-0.12721243823054976
0
-0.06540306619185261
0
-0.08707003649943858
0
-0.04822562207060685
0
-0.0773467089904749
0
-0.05155430472147526
0
-0.01512622307730272
0
-0.0881573924130561
0
-0.039161133913233864
0
0
-0.015434407686443443
-0.022955512888137006
0
0
0.02083280515747328
-0.03104270798304368
0
0
0.006855404130087921
0
0
0
0
-0.21304749816557503
0
-0.08731073795844656
0
0.8067070633395871
0.15416940516896813
-0.05753813731294712
0
0.9666028183965126
0.3408940477646112
-0.06919271238590234
0
0.9934810772954704
0.40770756713946993
-0.05381238063681868
0
-0.03757599398257671
0
0.45062710818677937
0.9977224253422622
0
-0.003291286344470888
0.4429744315632504
0.9983257500106558
0.9979868736679153
0.35396417439283817
0
-0.07458283937095024
0.9934104181940401
0.2054836891611466
0
-0.05347379836460966
0.9671575559412307
0.0031848636983034338
0
0
0.8132814801486484
0
-0.0666665897517875
0
-0.13385289291473543
0
-0.09088970887370201
0
-0.06844600462046918
0
-0.05084123360783679
0
-0.06402057555568731
0
-0.0458297550069289
0
-0.0517427390829188
0
0
-0.03794877714718826
-0.035469529183715785
0
0
-0.012893286666559887
-0.02542482162783836
0
0
0.0074884574936018205
-0.012454054146855872
0
0
-0.004326430252380257
0
0
0
0
-0.15913351410685675
0
-0.02380842547709734
0
0.8062640457395674
0.16137351674536504
-0.03990330460612304
0
0.9629757032811971
0.30568006837938283
-0.029402574580143653
0
0.9880457631473001
0.3840913893301856
-0.02581420056763913
0
0
-0.023996060686010946
0.4200683716662977
0.9923098067153481
0
-0.04991153956247832
0.4052681130581928
0.9921996486019254
0.9919485425280107
0.27990498383170753
0
-0.07207604759750241
0.9872000368196949
0.1797017518237699
0
-0.08469264586362148
0.9622319925693575
0.00915046528900485
0
0
0.8083388373548365
0
-0.04375318155532303
0
-0.13322157527098757
0
-0.06150137573352455
0
-0.10190043537418987
0
-0.03223724934168141
0
-0.03475901766341035
0
0
-0.08618509065750118
-0.034946651430014304
0
0
-0.06547418487476597
-0.04217374622632916
0
0
-0.043789174757394606
-0.019746851499943915
0
0
-0.021789474174776665
-0.0023564032366019325
0
0
-0.009676835016006665
0
0
0
0
-0.1913805364016676
0
2.428036220752192E-4
0
0.7936000869526021
0.12710632052585288
-0.036717488549499515
0
0.9327390114145336
0.2892426940547257
-0.02804038951776878
0
0.9580969346385929
0.4322041919844994
0
-2.4956370516341703E-4
0
-0.07419424379374683
0.46208641370850195
0.9613841784901388
0
-0.012583620556651777
0.3989492133811467
0.9612772007462796
0.9601370141061375
0.31652309096606407
0
-0.058783774170253066
0.9558095217854929
0.16998569119183904
0
-0.05546825990066046
0.9308560161077039
-0.012575181254552871
0
0
0.781187720326689
0
-0.052644323074281886
0
-0.1266520961482159
0
-0.03297756932221164
0
-0.0965208648615321
0
0
-0.047511128515408486
-0.06698899229184542
0
0
-0.038591807133043804
-0.024633830388074655
0
0
-0.03639463467895598
-0.020071231986051933
0
0
-0.013224495970973133
-0.02003834794676955
0
0
-0.020712096983221632
-0.011988009457166071
0
0
0.004278061537764153
0
0
0
0
-0.20216603106756373
0
-0.020275583513266235
0
0.6471761884313797
0.18027415328318155
0.02630805022234332
0
0.780885348315831
0.3370791873641503
0
0.003003406530125819
0.7907385477554764
0.4145967971982068
0
-0.05080748144043423
0
-0.033041360644091106
0.43689618620580356
0.790618198651967
0
-0.07717627413864438
0.38991957333754335
0.790913884221391
0.7902145338770973
0.28492160447849696
0
-0.03453022368804571
0.7865540922572443
0.141126289895817
0
-0.08100174252604836
0.7643235569499439
-0.044471161606886606
0
0
0.6359058204843063
0
-0.005450765518386778
0
-0.11435710108479218
0
0
-0.040259365089617555
-0.09517636245563338
0
0
-0.040210413811033414
-0.04098751406681597
0
0
-0.032128193700732804
-0.026267551448376118
0
0
-0.0284699175449414
-0.032938900699248756
0
0
-0.036559974678347366
-0.006613164968789823
0
0
-0.015642796630748964
-0.038157049901155315
0
0
0.02790373151496649
0
0
0
0
-0.197890992062702
0
0.009004674851295968
0
0
0.10687419167090889
0
0.011654509633037442
0
0.244804228190555
0
-0.0083900898078475
0
0.29745438453433537
0
-0.023350590632582033
0
-0.03840107447507179
0.32558276604523234
0
0
-0.034686002147523494
0.3207167120336852
0
0
0.21470564221201552
0
-0.04830443108847438
0
0.07850964617396854
0
-0.0763732688170742
0
-0.06306932798784516
0
0
0
0
0
-0.013863551677832618
-0.13394605029902873
0
0
5.803518417374242E-4
-0.0426996350301232
0
0
-0.012330530131866824
-0.008676854545804776
0
0
-0.04288839836783242
-0.036320213191487795
0
0
-0.022494390922516653
-0.033803782316249927
0
0
-0.031243531148159667
-0.003433587784780021
0
0
-0.0065663292098207164
0.0032287622466810654
0
0
-0.014825344701064723
0
0
0
0
0
0
0.005590734298911839
0
-0.09723300473827749
0
-0.006378316518596643
0
-0.0017266450044669394
0
-0.04789687786866185
0
0.01692977399146506
0
0.011725649269853757
0
-0.013635934927956067
0
0.06033828787203593
0
-0.01874156005466264
0
0.0016963391276502845
0
-0.0191289939668942
0
-0.051401975137143924
0
-0.04798831282136482
0
-0.07238598806263034
0
0
0
0
-0.003680786960316864
0
0
-0.012493653601495994
0
-0.08827903602280383
0
-0.0018067026089224247
0
-0.05110451693167394
0
-0.07135398243115489
0
-0.05267259320382218
0
-0.050259299271404455
0
-0.07043144927088922
0
-0.0038151210975913992
0
-0.06582607209418322
0
-0.03320975960994831
0
0.001986054465156803
0
0
0
0
0
-0.006677693585960921
0
-0.09414092587080454
0
-0.032467039658372394
0
-0.10716637186165195
0
-0.037092384373611835
0
-0.0884164779323282
0
-0.01670065791940573
0
-0.02556766479987534
0
-0.06589708363745454
0
-0.03529722906645857
0
-0.06235999033198513
0
-0.09315255160578274
0
-0.04892096027386531
0
0
0
0
-0.015673771419817625
0
0
0.0012725191683939123
0
-0.07855685801221492
0
-0.06021800686660294
0
-0.09016079334163953
0
-0.05548220730056699
0
-0.08571270090438075
0
-0.05652943056589987
0
-0.0723730677722181
0
-0.01589264666450389
0
-0.05219008642335791
0
0
0
0
0
-0.027568191867734473
0
-0.10382492258913394
0
-0.023580683267347257
0
-0.12792392443378328
0
-0.004231976718935299
0
-0.11706881099271542
0
-0.07312240969821569
0
0.0013351995419021304
0
-0.0991631598107845
0
-0.01613360800507563
0
-0.06150714183963401
0
0
0
0
-0.039082202151429685
0
0
-0.05575676898195706
0
-0.09833541486497561
0
-0.079420443556812
0
-0.1192341511347315
0
-0.054497744313027834
0
-0.09424945692795145
0
-0.03284571516463356
0
-0.04428652211607623
0
0
0
0
0
-0.004232882844760292
0
-0.09968370549874715
0
-0.0029370897205983778
0
-0.09113539832137979
0
-0.04279747044175222
0
-0.060603310907947815
0
0.005336969446046501
0
0.0014341373262619355
0
-0.05088950566904735
0
0
0
0
-0.06219371788010524
0
0
-0.05115097536372202
0
-0.12108342891318902
0
-0.01996359520827123
0
-0.07651403457459512
0
-0.006862330286604951
0
-0.035953356364958534
0
0
0
0
0
-0.022399065393205755
0
-0.09100910977702048
0
-0.029061654834081994
0
-0.06304064292197313
0
-0.034222416312662624
0
-0.03587455032219187
0
-0.013636120011893037
0
0
0
0
-0.04631990872942268
0
0
-0.026221382918645106
0
-0.04547186359266719
0
-0.001710223981799918
0
0.00525721661659763
0
0
0
0
0
-0.027468695515366195
0
-0.051039183509306245
0
-0.008576404054379825
0
-0.031747188112164454
0
-0.012326945706788365
0
0
0
0
-0.01080344366562646
0
0
0.050370418044981324
0
-0.023637546021209935
0
0
0
0
0
0.003304266104847646
0
-0.011584627541348093
0
-0.032230314501187775
0
0
0
0
0.02371962386018556
0
0
0
0
0
0
-0.0026873691299784193
0
0
0
0
0
0
0
0
0
0
0
-0.13251189618968875
-0.036346283013172574
0.022128050904047583
0.04016164897927078
0.0025293899561117943
-0.020135150692478895
-0.08694793868170712
-0.11252803405754407
-0.093686224622399
-0.0431547195298868
-0.05783942860536983
-0.029629327159334057
-0.05232940949097357
-0.04929427387344786
-0.16072420899911102
-0.019955877493101945
-0.20327497663273417
0.05158491274767885
-0.18814889667644252
0.06058440152038077
-0.1382007675920174
-0.14380188548718817
0.056295027782151376
-0.10202364226831302
-0.011087243206269104
-0.06425042972702648
-0.16527107189177356
-0.12246763619721211
-0.08220104734850243
-0.1400816772452029
-0.08625779540868182
-0.11653011560215361
-0.061904710132139794
-0.08869714210850393
-0.06955883555636204
-0.06852631955663857
-0.04808295505702162
-0.07673385363456074
-0.1323127209445459
-0.16791804526537615
0.011330765988344758
-0.17568734332257574
-0.16981524664864256
0.06749292132201168
-0.13176359917819813
-0.1586115221227735
0.112216495217467
-0.11662389474832195
-0.09717915539573846
-0.07433269449379117
-0.16119206049257914
0.06623779332438524
-0.1406395024574438
-0.023154525694720946
-0.06051594126590907
-0.11866935024105973
-0.18799875884776995
-0.1287909690627657
-0.11503412955938108
-0.15234771095486277
-0.13136712845823043
-0.10562320981837146
-0.11475611775193072
-0.13393665869862972
-0.07166848648491646
-0.10797106665877022
-0.0727128269978121
-0.07171353235197865
-0.09267272212626802
-0.043670894147750855
-0.0762947537108236
-0.07786463910009365
-0.20450817733414853
-0.10103877641481858
-0.01954583986122554
-0.11424504910078204
-0.18650253401828207
-0.0773748365218569
0.014499818899094448
-0.09246992059566989
-0.199274003259959
-0.08081931781898465
0.04154101669120803
-0.09568297264957841
-0.20304777081758738
-0.05346737434309621
-0.13664481626106392
-0.1486571043343519
0.06553624071383186
-0.17582845405878003
0.02431721407840588
-0.04280503234824896
-0.09679458747146973
-0.1529152885091182
-0.16192885538604737
-0.1391708059406075
-0.09023799510793733
-0.1358994747593618
-0.1742030540978975
-0.15511434188260853
-0.09916046627120484
-0.10090053087751433
-0.1206762295076307
-0.10469003774833356
-0.06903156497434187
-0.11268300289087353
-0.08034574963973395
-0.08201560281437147
-0.09264935753903857
-0.052647371628005146
-0.11427452288127561
-0.1393427263830835
-0.1830099765907579
-0.17091945353353355
-0.0999604690107092
-0.04442057586188761
-0.12615747141897457
-0.1938023272103503
-0.20194255789523477
-0.07620660477824966
0.008201775190379621
-0.11789390966045499
-0.21325416386810023
-0.15887576413717633
-0.04656423365951578
-0.002368137889814033
-0.14046388218443265
-0.2356906901630796
-0.13445040120778348
-0.11415191130145573
-0.16304495547911782
0.010783111166713264
-0.1461122109174293
-0.014712925525783918
-0.08510925879787523
-0.08813066963083084
-0.14270621407281003
-0.2005015256290127
-0.1703595338109465
-0.16477698381772454
-0.03341602594233465
-0.11912455303731795
-0.20260507718825946
-0.2026600826850654
-0.07935389481975634
-0.059115607630899174
-0.14955486412275928
-0.1483088896479474
-0.09695502334548284
-0.08805513807588833
-0.1339515649037271
-0.07131196066930105
-0.08051981563670839
-0.07168103117790743
-0.03818679395700086
-0.09307064889142543
-0.17261902373123658
-0.15060024598026708
-0.21073688684095512
-0.14154017195999927
-0.06821990563307344
-0.04862490779342229
-0.14780987600234632
-0.1988818166231597
-0.2393944598245946
-0.12522097105846855
-0.014890161731345922
0.025839071832986168
-0.1712735127471072
-0.2314764060450658
-0.2344273523493833
-0.06014639157153124
0.06512785698026942
-0.17590882920521847
-0.1878458871781997
-0.1383537432308994
-0.1393202785581248
-0.13214039128628882
0.023655525252849748
-0.09000241102144863
-0.0264614081781244
-0.08624447071840492
-0.0641961801585096
-0.12469420661684348
-0.23589834010328123
-0.19610610367046957
-0.1924558972829561
-0.16592684567447658
-0.08217204870288919
-0.18330997910681743
-0.2440882186613074
-0.12554904522376698
-0.14545293410412566
-0.07951306061361585
-0.17987467527780507
-0.11920486226690663
-0.0972309438365861
-0.11634335397168345
-0.13806766996547146
-0.08942021408238147
-0.11426084729587234
-0.037461231588201145
-0.03572184637607568
-0.0764162278932121
-0.15530515416948534
-0.22891884520739583
-0.23360221145749419
-0.2520602437948592
-0.13336176844772488
-0.05036245930613579
-0.02221367204112014
-0.14501508111793318
-0.25503841393480103
-0.2347705840565277
-0.17945212905748953
-0.031366654659993026
0.03785144890265987
-0.13723771034728158
-0.27093467898573037
-0.19350035066734603
-0.10189497879204551
0.0660546605959218
-0.14955742133957586
-0.16844822426621564
-0.1255564298347944
-0.08949498719137355
-0.15998154531987255
0.014285714664772705
-0.11430354027791877
-0.021948580018908374
-0.10268581606062006
-0.06852533906857101
-0.15977486153835582
-0.2936412954102119
-0.2098317713160759
-0.18214228808992505
-0.13012855167433332
-0.10666704181313637
-0.2056392088707023
-0.17958982866713213
-0.14702002863795907
-0.09405904195321328
-0.13988954426813824
-0.16252360469490282
-0.1737358766724083
-0.10914723250639287
-0.11094064723624135
-0.14458507793770667
-0.11116839181118514
-0.08292542820817615
-0.0611921239723403
-0.010962362908620231
-0.15661771806195987
-0.1928540078565889
-0.2664300611657238
-0.2840440572267297
-0.12936089541779483
-0.05857318046197311
-0.147864690676049
-0.2362706186601121
-0.24053108915225427
-0.16963253528096622
-0.06264311819055068
-0.10327955395941994
-0.21490698438729441
-0.15848988199725197
-0.061958947217458045
-0.09841707445374019
-0.11095187323292305
-0.0973348064965624
-0.050917780096363906
-0.09645164323255345
-0.08621013790822095
-0.06123262645578372
-0.18945399138229477
-0.2242866996229231
-0.20622861150903385
-0.12673796040711596
-0.099601620764363
-0.18457638468426396
-0.19287775016734796
-0.16728093964715643
-0.11623602670618642
-0.15879685843310642
-0.14771074117077865
-0.10452865140546617
-0.10585564469488253
-0.026822834631180115
-0.12492999185389426
-0.22838671498059968
-0.20814065674267235
-0.13677112562728458
-0.0750390801426777
-0.12353269584640121
-0.2102022034597323
-0.14891768472257197
-0.07807034388235602
-0.13986441857980644
-0.15999630566522682
-0.06500357612295067
-0.06416589912597061
-0.06006077089856985
-0.030348457065142453
-0.11474802431481552
-0.16678849832470666
-0.21891100025948818
-0.20450963315127227
-0.12636832060892852
-0.1808841556783589
-0.19017808576718387
-0.10770617337568882
-0.13883732225113346
-0.06526977697265018
-0.17951758613319557
-0.20533906879758637
-0.1708461191581926
-0.05981721159955211
-0.1871881771428013
-0.11378163901563114
-0.11250503737566932
-0.08087198292098165
-0.096828058196043
-0.042173813493464045
-0.12184596829532272
-0.13363754492452926
-0.19668320222373395
-0.12761927647091745
-0.15062423322600613
-0.0640817875387809
-0.18038652202836192
-0.11241864758903593
-0.05411507535850351
-0.13213564446158002
-0.08730298527343189
-0.0725070517899875
-0.1323949734223615
-0.13605555291023622
-0.06662513283551875
-0.10428565468571165
-0.09041627402370134
-0.05943710915002543
-0.0531546738396198
-0.0340242148972096
</DataArray>
<DataArray type="Float64" Name="v" Format="ascii">
0
0
0
0
0
1.716141596075629E-5
0
0
-0.0023439619797331777
0
0
-0.0022248261798050316
0
0
-0.0024415037351993686
0
0
-0.0023107714392766212
0
0
-0.0023927533323044314
0
0
-0.0025803503791557297
0
0
-0.0030597460924349546
0
0
-0.0063311441465813455
0
0
0
0
0
0
0
0
0
0
0
0
0
0
0
0
0
0
0
0
0
0
0
0
0
0
0
0
0
0
0
-0.0021398041009634485
0
0
-0.003226585581028426
0.03981765090053449
0
-0.0018221071210886113
-0.02797943658036643
0
-7.884677477564447E-4
-0.025237587151462515
0
-0.043896624840628055
0
-6.571493955138797E-4
-0.008728617298920218
0
-6.308770098149095E-4
-7.184673809875101E-4
-0.009365293190235456
0
-6.647349961420858E-4
-0.03999614653453686
0
-0.0016737654896890562
-0.04434779138405473
0
0
-0.0010279783217640053
0
7.494440529772823E-5
0
0
-0.021066520089261145
0
0
-0.013036743848315263
0
0
0.004833430473429475
0
0
-0.02195822294420359
0
0
0.010542476754227233
0
0
-0.02048215211363401
0
0
-0.006567510351368935
0
0
0
0
0
0.010725459080850095
0
0.03947802737199615
0
-0.0036017970113617326
0.07168095268361642
0.008049296089572168
0
-0.0010522193586890698
-0.008229026253930375
0.014708400032550875
0
-5.841025472425297E-4
-0.035072069779002374
-0.0033823373609328158
0
0.01289819639943466
0
-0.05241460842829046
-2.997097169351212E-4
0.02322812366745326
0
-0.022109272741990094
-2.1041920080789133E-4
-4.17367403084127E-4
-0.02267217865796751
-0.01044270357575642
0
2.319430667102511E-4
-0.04288418349152979
-0.023100553670773252
0
-0.0010395588074676011
-0.023664902328439697
0
0
3.176659939501324E-4
0
0.02797748842694837
0
0.02180677127721087
0
-0.005280875461350944
0
0.015328804600374666
0
0.01814344147493946
0
-0.008061614134084407
0
-0.02331303944082159
0
-0.027642924379736214
0
0.03657457349077328
0
-0.040159001002566065
0
-0.013670287335413152
0
-0.00443148385683688
0
0.032493250579376125
0
0.005174397823898034
0
0
-0.009134847397908792
0
0
0
0
-0.026790478839347386
0
3.415898491046535E-4
0
-0.003534458398111402
0.04144311985519547
0.034408733687227626
0
-0.00139095705867992
0.01761417537152254
0.0082646743510236
0
-8.670312419107339E-5
-0.027450471383773534
0.0030857189261828694
0
0.008553950374135923
0
-0.06260082172112781
1.3675196794361817E-4
0.010847189310952658
0
0.015367430408446897
1.0150127460824157E-4
2.3089760275888535E-4
-0.009948641540224236
0.017303624230926167
0
3.654090949254047E-5
-0.034339831951196685
0
-0.005661049103148518
-9.85003783956488E-4
0.022333442127958677
0
0
5.085099020799965E-4
0
0.008515156967686068
0
0.044548407854624335
0
-1.0359028179085548E-4
0
0.041718578497142104
0
-0.013458005514301612
0
0.005924339270168277
0
0.018880266003826265
0
-0.027726429722065484
0
0.019386711052149855
0
-0.022140464214783204
0
-0.024796078277208023
0
0.013124153071651821
0
0
0.018780913897941124
0.002338708260124001
0
0
0.013393503515829375
0
0
0
0
-0.030544106754493035
0
0.010205665313216124
0
-0.0034962714744899985
0.05473402066543607
-0.01894741429722212
0
-9.106902664225742E-4
0.020962842727712774
0.012746323534483427
0
-2.947773976044589E-4
0.019684835076149706
-0.0022939819449722416
0
-0.014427341911772846
0
-0.026160260323025913
-2.1246152495034814E-4
-0.040844902288860147
0
-0.007791506045814967
-3.8340428157293794E-5
5.490177900525924E-5
-0.028999104596218347
0
-0.005115836064217102
-3.2566797114560916E-4
0.01494157684896171
0
-0.008149465553211352
-9.547987434893259E-4
0.024928427556255416
0
0
-1.0033580625196838E-5
0
0.012818280712905021
0
0.05102601792884634
0
-0.013556940317127618
0
0.06044707832962145
0
0.013123365379632995
0
-0.009252387328062025
0
-0.005213940368863122
0
-0.0256565001786111
0
0.0021620176419363626
0
-0.03676222376613999
0
0
-0.01341592030946727
2.9380441500371016E-4
0
0
0.016521542866528
-0.006962255794840353
0
0
0.03634646273183814
0
0
0
0
-0.05825339305320341
0
0.0012841099982703814
0
-0.003992350767922469
0.027574675792639627
-7.473868887602238E-5
0
-6.109298440113978E-4
0.033623498755826854
-0.009106387157921033
0
-1.1603542711239521E-4
0.021686014849623462
-0.03675053709539752
0
-0.002144172942490768
0
-0.027943675048087927
-7.367842308070327E-5
0
-0.05339552640583359
-0.01681857504511382
-3.937561441204979E-4
4.733777052298504E-5
-0.029437408920127944
0
-0.020599310688580234
-3.2774896201531555E-4
-0.003339169694756677
0
-0.012688092896042148
-7.497377066226861E-4
0.017588787907921063
0
0
2.515384610959678E-4
0
-0.006814932353751097
0
0.03527932997077935
0
-0.0062978139681123995
0
0.044177138211374506
0
0.014985384703482763
0
0.021824338912407648
0
0.011032576102795948
0
-0.023526675825227928
0
0
0.016328057203699023
-0.016981585912008542
0
0
0.046206175685318575
-0.018728567385933422
0
0
0.022592238029704403
-0.01910144750902097
0
0
0.002847372895963951
0
0
0
0
-0.014730893515664535
0
-9.711947847214726E-4
0
-0.003791737779146274
0.021488222064366666
-0.03199020421708709
0
-0.0012947823376579827
-0.0166642319463749
-0.038140443363430275
0
-5.475930617599358E-4
-0.02223077107146655
0.02251098122450579
0
0
-0.028346651979304454
-0.018713095209617104
1.0668550583756598E-4
0
-0.049471289308923604
-0.016678527918097246
-2.9356375795158913E-4
-5.791422275648665E-4
-0.011968673104229924
0
-0.024870608257011328
1.3168420720414106E-5
0.039024463061743
0
-0.009710318717748807
-0.0013760875489570864
0.023682513693491728
0
0
-5.376493524008472E-5
0
0.013343901436423743
0
0.002237339307000818
0
0.04701287867518553
0
-0.0032694206028905195
0
0.012134696850965668
0
0.011471302706462816
0
0
0.030219431221797082
-0.02385324188874173
0
0
0.005346561211488161
-4.975414343433576E-4
0
0
0.039884579349442124
-0.02771975566403949
0
0
0.008596087628163522
-0.012621036712438366
0
0
-0.005050566706134767
0
0
0
0
-0.015075100823551305
0
-0.01796952011206138
0
-0.004512864025864553
0.013231869354250282
-0.016700326374665567
0
-0.0011904381033288182
0.0012968553910595486
-0.0211876437678616
0
-0.0010067965539193502
-0.022011656574821556
0
-0.018742403770620975
0
-0.07159168588191615
-0.03136893559437834
-2.652373139760569E-4
0
-0.016805706039355592
-0.0030895648811967214
-8.558990225697455E-4
-8.952796397812802E-4
0.056485389184908634
0
-0.01679444728265746
-8.681657604831459E-4
0.06616631104363746
0
0.008471746392014283
-0.0013299710238255382
0.019922868059143548
0
0
1.6893233885531108E-4
0
0.047045586622061965
0
-0.037461084384219474
0
-0.005479135440378615
0
-0.04819488585171614
0
0
0.0317163870136464
-0.006946427388419532
0
0
0.0782528286134661
-0.0057802918703335196
0
0
0.051900963068794555
-2.773557298746884E-4
0
0
0.028675441607201934
0.001923900542635094
0
0
0.022890025018120697
-0.011382656303111192
0
0
0.026006186275583584
0
0
0
0
-0.06334051554301022
0
-0.004181157642497745
0
-0.008447815377744597
0.003973183646168958
0.016085224337337885
0
-0.004326427529227384
0.039097694767190834
0
-0.01062274728352852
-0.0025846394038788858
-0.002608816742302093
0
-0.04836885187791342
0
-0.0016878386221697553
-0.002498078242190364
-0.002097014069569234
0
-0.0116317522997366
0.029478178517339904
-0.0027543406526249234
-0.0028990667623870134
0.059913755345792664
0
5.786555811919392E-4
-0.0025593251677861984
0.07751867944753689
0
0.011136173013862436
-0.0016867369532024554
0.05370797906046427
0
0
0.0017295998575266802
0
0.02509083598576485
0
-0.05199893211879534
0
0
0.024813725804552086
-0.05022539958543693
0
0
0.10093045823909225
-0.039825238877833964
0
0
0.06157381617870452
0.006667613594509955
0
0
0.061341555414478714
0.019639536721448646
0
0
0.009383476676848414
0.028659371014038707
0
0
-0.013473609940645226
-0.011530054343382426
0
0
0.028977622037140393
0
0
0
0
-0.09727372893170157
0
0.012362510333614901
0
0
-0.014229338298948175
0
0.016158925054342837
0
0.011050808404891586
0
-5.468966043091493E-4
0
-0.00806385707135925
0
0.017588811818502966
0
-0.010754045470874966
-0.017092108340609608
0
0
0.01987968230581227
0.04159025546216988
0
0
0.010503883041269256
0
-0.014143846999533286
0
0.05210268670328357
0
0.030431567933621343
0
0.06208166203725766
0
0
0
0
0
0.061186356571265164
-0.023084976142799488
0
0
0.06888026866851334
0.0021691777491839037
0
0
0.08947385547682442
-0.03646904909253054
0
0
0.04627291592990942
-0.011772580880413849
0
0
0.035306409519883585
0.00701651949226099
0
0
0.05618177674700988
0.028950018308235726
0
0
-0.0294230232840578
-0.015333433990777537
0
0
0.008565307440702321
0
0
0
0
0
0
0.027792739413270613
0
-0.023352833298753855
0
-0.004408494178525167
0
-0.009513101917723428
0
-0.006459020458795483
0
-0.03015160722833651
0
-0.004178440055282172
0
0.002432661710348045
0
0.019584734042882187
0
0.008596773844590242
0
-0.007338772292436902
0
0.0182888769861045
0
-0.017615205871447697
0
0.015025640046908479
0
0.03721567779025737
0
0
0
0
0.06936685955723966
0
0
0.07192704123180511
0
-0.01365465269551528
0
0.05601859670598943
0
-0.05147028097513704
0
0.015484465231301328
0
-0.02266110722466856
0
0.03200437041605289
0
-0.012543629258863704
0
0.03702101218743215
0
-0.005589483507622895
0
-0.03202881565797699
0
0.01227301479919035
0
0
0
0
0
0.010868185076107796
0
0.019526373761667156
0
-0.02746614601263198
0
0.03273579845009892
0
0.06051475464545103
0
-0.006090917007231152
0
0.049940484248258914
0
0.045597221350830365
0
-0.019276936476533554
0
-0.0046307401979866596
0
0.003427328797683217
0
-0.015020185093748292
0
-0.021220694175951182
0
0
0
0
0.0322915908869894
0
0
0.042392114460267805
0
0.011986637278384582
0
5.38567798048044E-4
0
-0.009140630988734686
0
0.01850172478069317
0
-0.031005427485725028
0
0.03276165989127625
0
0.006618006122650257
0
8.30214727357108E-5
0
-0.004482437764073945
0
0
0
0
0
0.014080167788257674
0
-0.028072050557261485
0
0.005371744478451331
0
-0.023432401950501888
0
0.06662578600938529
0
-0.0023627653690510304
0
0.06422124256962373
0
0.05162396758829266
0
-0.0022850326825171875
0
-6.741242861145713E-4
0
-0.03735828775395269
0
0
0
0
-0.0014531768938174086
0
0
-0.027563530774324493
0
0.013045850758292477
0
-0.004040718979679656
0
0.012911564285000213
0
0.023457551578890224
0
-0.02443954002323763
0
0.002025837795364189
0
0.013968152886148886
0
0
0
0
0
0.011005716947821209
0
0.02298971807118751
0
-0.004148768677488567
0
-0.028587426800438128
0
0.019459302087160072
0
0.018577938732854075
0
0.05907039770070543
0
0.01358479300554638
0
0.0017104115020908659
0
0
0
0
0.0389933207841995
0
0
-0.02536351652577191
0
-0.006712548989887209
0
-0.002023798067479973
0
-0.05071131807876104
0
0.019138599675219428
0
-0.02258946781808134
0
0
0
0
0
-0.0038592155940264197
0
-0.01163809727175264
0
-0.021790152617253308
0
0.028427344163077132
0
0.03907076635313555
0
0.029819523254147644
0
0.0485367125697199
0
0
0
0
0.03442608245854691
0
0
0.007047222889142615
0
0.015533544651586255
0
-0.028061555266627496
0
-7.775609554782542E-4
0
0
0
0
0
0.013534489503043036
0
0.04359112770430463
0
0.030805404902277133
0
-0.0053314076144766985
0
0.023839082510292223
0
0
0
0
0.026908758637990735
0
0
-0.006192590890969598
0
-1.503671041847486E-4
0
0
0
0
0
-0.00544421000445949
0
0.01618881682242601
0
-0.019707797275810065
0
0
0
0
0.002305207680019864
0
0
0
0
0
0
-0.013142511539116773
0
0
0
0
0
0
0
0
0
0
0
0.05200457933288952
0.03522196858276775
0.008165252483746057
-0.031864750721097505
0.01490847606104922
0.017577821966905268
-0.02334054211656245
0.04831140486676864
0.004221970796122813
0.016184061285253844
-0.008081752754864837
0.041027610428819056
0.011828984532578433
0.08128574436370205
-0.050310516304225665
0.011060840992002184
0.003220097484263246
-4.015637125040679E-5
0.002375694060998289
-0.03285239682452878
0.008609194961454876
-0.005466011727158073
-0.021947059390621807
-0.0025479021414233157
-0.014273526195439146
0.03396711809645626
0.008990437021013242
0.029153517988624197
0.015116192206244642
-0.02123438602182813
0.017783335934404784
-0.0038545214822997983
-0.005147780464728056
0.004524727916304722
-0.03766996900704547
0.02167773780625927
-0.011151235004250947
0.056691813196218875
-0.009425837616372635
-0.0033704852548497467