<?xml version="1.0" encoding="UTF-8"?>
<VTKFile type="UnstructuredGrid" version="0.1" byte_order="LittleEndian">
<UnstructuredGrid>
<Piece NumberOfPoints="1331" NumberOfCells="6000">
<PointData>
<DataArray type="Float64" Name="u" Format="ascii">
0
0
0
0
0
0.6293317559495888
0
0
0.7632886974487895
0
0
0.7861610491993792
0
0
0.789343670300119
0
0
0.7904293898056455
0
0
0.7904305609709033
0
0
0.7898888683639204
0
0
0.7813657838299314
0
0
0.6548354946655673
0
0
0
0
0
0
0
0
0
0
0
0
0
0
0
0
0
0
0
0
0
0
0
0
0
0
0
0
0
0
0
-0.1985656125848293
0
0
0.7739640282417232
0.11041260272990576
0
0.929104563907943
0.25245733246928115
0
0.9561702683084169
0.34151092266135374
0
0.33979940075812015
0
0.9604905596405396
0.3100307350044355
0
0.9611839322497927
0.9609430319978648
0.192745317924668
0
0.9581190342267747
0.08326389839153837
0
0.9336847872437168
-0.04626889581391272
0
0
0.8013234703474924
0
-0.15473225567992976
0
0
-0.07293514258103982
0
0
-0.07303675449452966
0
0
-0.03419309008577865
0
0
-0.01542744390120221
0
0
-0.02594819543482217
0
0
-0.01829951277903076
0
0
-0.01382329273909736
0
0
0
0
0
-0.17631104171209688
0
-0.12220046384777634
0
0.7999772813965117
0.1642251404146814
-0.04279929844999585
0
0.9608877176953481
0.28462268214934405
-0.0014012696550206353
0
0.9877890154229126
0.3563527101845389
-0.049387182845369554
0
-0.049415262550949864
0
0.40702596189847445
0.9918796426077988
-0.07077532889712017
0
0.35584235163279465
0.9925857259148216
0.9922495298267271
0.2575015800616016
-0.09642861416989164
0
0.9882394711235887
0.12866777263490328
-0.06037828976634562
0
0.9641420816739016
-0.02238761327114791
0
0
0.8134572487089377
0
-0.09486728678250872
0
-0.14303116185953532
0
-0.1076880824520961
0
-0.07998669887822091
0
-0.06824934141250295
0
-0.05556838560422261
0
-0.039690183346534506
0
-0.026686954528663733
0
-0.05033637410481571
0
-0.03034563894517105
0
-0.03104207852637871
0
-0.019625631954253996
0
-0.008439839254294755
0
-0.023589614976997575
0
0
0.023195630162541964
0
0
0
0
-0.18956354111446883
0
-0.08683452195601872
0
0.8053261636847663
0.12998389305528293
-0.08435168467189681
0
0.9663217406136256
0.25471967793200984
-0.11929594127232736
0
0.99340314981928
0.3165505465928382
-0.13324815376246232
0
-0.09716482026282237
0
0.3596819052656695
0.9982570747322542
-0.0910193628701436
0
0.36404812876327425
0.9984872944252109
0.9978250510738113
0.24958720498190176
-0.05286024095146033
0
0.9935807367135806
0.11224405963877078
0
-0.09383687994692069
0.9679353681413315
-0.016004022918365297
0
0
0.8142047887433274
0
-0.11428257161051252
0
-0.16053312883199042
0
-0.09730127562732199
0
-0.08622681679306866
0
-0.024576650422080234
0
-0.06773763992030513
0
-0.042379645854578624
0
-0.06556364507110658
0
-0.0435575053452526
0
-0.04072692895522911
0
-0.03855763607002461
0
0.010991049369661894
0
0
-0.001515579504638583
0.01033018806137062
0
0
0.008601186786353328
0
0
0
0
-0.20260229164074692
0
-0.16255694444055868
0
0.8066312230069878
0.13656172633533006
-0.15632907287946243
0
0.9668648742602102
0.25739143244879953
-0.17275423187356387
0
0.9945212608794379
0.3469352529511119
-0.12072414058548453
0
-0.09962048174350031
0
0.3984512824359345
0.9985322171226443
-0.06734060669624792
0
0.3890545228765934
0.9988951037216899
0.9986995457558888
0.3031062574109767
0
-0.09433492182143315
0.9945190940642076
0.15064145236724083
0
-0.08151481555214281
0.9683148238831353
-0.005864189188921287
0
0
0.8141874960499694
0
-0.1193282669687793
0
-0.14703111164125507
0
-0.08259470577085494
0
-0.06184894186667761
0
-0.03664140169475172
0
-0.04575741428577215
0
-0.012581783517032243
0
-0.06606000675949232
0
-0.026180833331141188
0
-0.02772197643230405
0
0
-0.020738666917795398
0.00668378497081007
0
0
-0.01730274225996897
0.004406414423685976
0
0
1.481867022502368E-4
0
0
0
0
-0.13966254019963284
0
-0.12772773912789756
0
0.8066606302918479
0.22686393559744708
-0.11162105713221933
0
0.9671543674831855
0.32492777217742747
-0.07220602484537803
0
0.9933722534210284
0.4112657389649695
-0.02711552745933687
0
0.010183821835983793
0
0.4450829990465012
0.9973448538479736
0
-0.04187264733183124
0.4042533506961566
0.9983380248480694
0.9974697633102104
0.3578316087896847
0
-0.06751154597281818
0.9938190068756261
0.210493938165054
0
-0.07546996485535117
0.9680752630290109
-0.019534327148852285
0
0
0.8128964372902802
0
-0.09755231983930852
0
-0.14932946873342615
0
-0.014284179096009488
0
-0.07461009759459265
0
0.0354314615654742
0
-0.05629004782313576
0
9.820581344406746E-4
0
-0.06480388994478774
0
0
-0.017523310697748984
-0.027307437374621036
0
0
-0.003143594830489872
-0.01686777119279838
0
0
-0.009595971976046716
-0.0038247144586752726
0
0
-0.0011987485396883673
0
0
0
0
-0.17388189211085384
0
-0.04514576785509741
0
0.806215268684784
0.17870964789978896
-0.014033475182297377
0
0.9625486810383209
0.34226573727408033
-0.0030829000040983605
0
0.9881652601406151
0.43820660724206867
0.0010503320257481718
0
0
-0.012723668188036628
0.4038152771546535
0.9925357104158915
0
-0.02345531314064302
0.4015865892261961
0.992990960614358
0.9920550583669049
0.33323742264347617
0
-0.07371181149076668
0.9878763036244375
0.201549236710611
0
-0.10748129081580843
0.9623120237359366
-0.018198532463341563
0
0
0.8088695435563332
0
-0.020471470271475153
0
-0.12450930320911578
0
0.0581545861381511
0
-0.07110299275186316
0
0.06490953765554568
0
-0.05535676086713564
0
0
-0.015985232873990465
-0.07201847236935797
0
0
7.417450777312368E-5
0.010661151794559835
0
0
-0.004177015718092356
-0.04245536587321788
0
0
0.013488807134088433
-0.029822385755320476
0
0
-0.015714262046691133
0
0
0
0
-0.1813938391308677
0
0.032038809102287076
0
0.7935430253365138
0.175779867621241
-0.011445618449923015
0
0.9323716610346603
0.31457528928464024
-0.0019205515238432884
0
0.9586307734920273
0.3848875511464455
0
-0.016075541902844753
0
-0.026910694363513413
0.45943834485067286
0.9612662932108598
0
-0.03263443195185
0.41957516072125794
0.9614252821064705
0.960371672660756
0.34903594164888035
0
-0.06023628950533729
0.9560826039344069
0.219404906090415
0
-0.06735085355863313
0.9310991329391686
-0.009375129182131672
0
0
0.7810035187922862
0
0.0602401459674456
0
-0.14150755617022923
0
0.03346005456413584
0
-0.07966751940644755
0
0
0.012490701061184058
-0.012853224134817152
0
0
-0.048065221264997994
-0.030719191302983954
0
0
-0.029837744927849404
-0.01804330153541096
0
0
-0.02215641347811598
-0.026088144883662994
0
0
-0.028823514000907807
-0.03163808450549833
0
0
-0.0418020491947022
0
0
0
0
-0.2022647707403289
0
0.008755223779047807
0
0.6471059490427999
0.14212959307884446
-0.00862182886483682
0
0.7801933034523975
0.3057635843606618
0
0.024165162154466083
0.7908367842112431
0.3870264035263571
0
0.0018945504421616626
0
-0.061864808399076925
0.4224928369152659
0.7911184601458164
0
-0.021223597692356697
0.3851650099089899
0.7909957804046791
0.7902460235328425
0.3051974841635187
0
-0.060200813226725124
0.785831570412083
0.15893903122236094
0
-0.04762829957053952
0.7649408674482613
-0.04298367344526746
0
0
0.6364399118352726
0
0.034774907343521205
0
-0.1215377940243602
0
0
0.020483255567791903
-0.12169680316165911
0
0
-0.06593429453950976
-0.031297673100772666
0
0
-0.04806927034050504
-0.03327948734261003
0
0
-0.06955750770423304
-0.0021737482097315196
0
0
-0.053656090049943185
0.010140232012241403
0
0
-0.08946638410872022
0.0028210249269700343
0
0
-0.019650180576857138
0
0
0
0
-0.1938106576794132
0
0.0016087889529159966
0
0
0.13407016680094097
0
0.015801022009747537
0
0.23798403595479636
0
0.005082125293521322
0
0.2598655106832754
0
-0.04651417017276769
0
-0.020296475502425023
0.26187350584691
0
0
-0.054163258118357066
0.22136426295883818
0
0
0.20069650129591485
0
-0.05074125080429939
0
0.1181617873869412
0
-0.07281204025554283
0
-0.06091226873530039
0
0
0
0
0
0.006374137775162815
-0.09297374015728949
0
0
-0.018984751663964353
-0.057417339901699276
0
0
-0.00548900543745233
-0.029937940036216294
0
0
-0.05909660762780588
0.004620672332878123
0
0
-0.06380125416696214
-0.039851681729403815
0
0
-0.06639838877863108
0.0020791225359850503
0
0
-0.02501381604483259
0.012156564841108575
0
0
0.026799797449549675
0
0
0
0
0
0
-1.2126730307751187E-4
0
-0.07952267345211617
0
0.003914979374171069
0
-0.01737816617866687
0
-0.02636409655369464
0
-0.0045541101762114075
0
0.006014111251564983
0
-0.0024908198342044833
0
0.005254172260880167
0
-0.04605490414623434
0
-0.03230762940339701
0
-0.0587301922397283
0
-0.06861486211976776
0
-0.07986804987095569
0
-0.049587738635495045
0
0
0
0
-0.029062903475375063
0
0
-0.03364040479994787
0
-0.12854250596454223
0
-0.050135810860085644
0
-0.10443680262536074
0
-0.067795847553221
0
-0.06785917481905031
0
-0.07083801452373277
0
-0.0572138297035256
0
-0.07102120610512606
0
0.005467849851677197
0
-0.02599185439565965
0
0.006522189493957106
0
0
0
0
0
-0.01377271337949409
0
-0.13232888983505828
0
0.013551311375850411
0
-0.10065766111120239
0
0.004384796852678203
0
-0.08547091077500159
0
-0.015858267027453094
0
-0.021794152910487127
0
-0.07190583671743632
0
-0.02683659692676409
0
-0.09105300629818232
0
-0.09117920040109119
0
-0.054279233968473534
0
0
0
0
-3.7510342673106813E-4
0
0
-0.0483893556691025
0
-0.12067795070240982
0
-0.05023278584802013
0
-0.10934204659121977
0
-0.09391689980520934
0
-0.08555975224936986
0
-0.08080810482801785
0
-0.0431194692812458
0
-0.026941545018018268
0
-0.021735512474430854
0
0
0
0
0
-0.017156094491449173
0
-0.13887790348171067
0
-0.029702808358217366
0
-0.12896062931738464
0
-0.009489019422009639
0
-0.12176621160512412
0
-0.06109015909359395
0
-0.028983138374549505
0
-0.09090382889001486
0
-0.024194424747683865
0
-0.07223926762716058
0
0
0
0
0.0072917644044109
0
0
-0.02596898094438282
0
-0.10484507033618677
0
-0.07186513084909672
0
-0.09120596465447513
0
-0.07842461175567722
0
-0.07507713636073564
0
-0.04864412096903766
0
-0.03193259699089868
0
0
0
0
0
-0.033228438396495925
0
-0.1292697469516675
0
-0.014521891713297526
0
-0.10290615257562824
0
-0.026661744013331254
0
-0.10247241040690276
0
-0.050478090848178114
0
-0.014123813821875513
0
-0.05877755421852624
0
0
0
0
-0.004575942671532788
0
0
-0.05620219050130502
0
-0.03384257748425959
0
-0.07505249864218584
0
-0.05685327279800912
0
-0.0412267022309262
0
-0.03721655631654052
0
0
0
0
0
-0.013005516041128394
0
-0.0642175577975949
0
-0.014038627757715213
0
-0.04075605631540699
0
-0.029109439762974237
0
0.030563737926992445
0
0.022056820123617645
0
0
0
0
-0.01828748709980775
0
0
-0.061695841076516066
0
-0.0629273431234716
0
-0.021604754435624096
0
-0.02979794066925744
0
0
0
0
0
-0.016512808753130454
0
-0.01796520314796524
0
-0.013052931219369733
0
-0.007995665478951688
0
-0.007352894876603947
0
0
0
0
-0.028315595483899832
0
0
-0.019656207148286153
0
-0.008261767478265965
0
0
0
0
0
-0.007993714971983647
0
-0.02125453990189187
0
-0.030038981992269547
0
0
0
0
-0.020906211808164706
0
0
0
0
0
0
-0.0179745581929978
0
0
0
0
0
0
0
0
0
0
0
-0.0837758317843566
-0.06715726825765601
-0.036010738744074365
-0.0228174370816407
-0.02525061060354739
-0.09558582700613198
-0.08842127934874223
-0.14173640905162074
-0.14637791167225303
-0.09293675633401179
-0.061632750033696386
-0.015896221659190524
-0.013383015202965733
-0.13871821142431215
-0.15567179135161388
-0.10097177340697798
-0.17998475191652566
-0.050238938427968026
-0.22379786613260147
-0.020118152264819597
-0.20656641889907354
-0.14868586279549548
-0.020189776837734878
-0.15759458094900755
-0.05354940978805934
-0.13782675342273132
-0.18741586699121662
-0.1521174638606624
-0.14219443817625668
-0.12319344487380517
-0.08972669413079398
-0.11462754031195878
-0.026119279751614728
-0.07090227407543882
-0.016392904946587124
0.029621349957446506
-0.007080071394640927
-0.1699138588510394
-0.18793489198081037
-0.213114005808821
-0.12299204651532862
-0.19027784693109065
-0.2272930622847821
-0.04682936500219403
-0.18484878352119602
-0.22704069096413562
0.007169709598061429
-0.1770640363624287
-0.19097950666936878
-0.12805436339371068
-0.17354105612362847
0.0446998621748628
-0.1510593607537115
-2.8202448000404564E-5
-0.09009480683375769
-0.1955313442913872
-0.19733410601415458
-0.16046721453927668
-0.09383604454731716
-0.13080343038461514
-0.14149611562885814
-0.04727176444821125
-0.09261347992624797
-0.1425627162419142
-0.017574872528467286
-0.04518759479974374
-0.09151005408603678
-0.014596780426692586
0.02398990115703133
0.03177431905143103
-0.13695061643533965
-0.17517724425026537
-0.2033690414199726
-0.24975897843635855
-0.0627187637655544
-0.16956379271129274
-0.21667694726241152
-0.24335362028646715
0.008226028436259478
-0.1586588459028385
-0.1956452326108252
-0.19273810997624
0.057729738887968944
-0.14850096489207243
-0.14309439665979132
-0.11459860521668115
-0.0878344932034853
-0.16730136023785824
0.03783158864353242
-0.12722666997978568
0.007361011799136432
-0.0592995696622478
-0.1100123340939607
-0.17266737286903477
-0.20346783788968428
-0.1283103811703571
-0.0586699711200993
-0.1222577294893316
-0.16983154456955962
-0.1353359139264438
0.020046293359319508
-0.06349401528049659
-0.13512865866897808
-0.1176128995178257
-0.012091475882176732
-0.03176415001412348
-0.0884252217198806
0.027037817080580947
-0.029300932896115985
-0.020620319529189694
-0.12212419398035539
-0.15404944010016217
-0.24774346992956006
-0.2262604129998901
-0.10355353194474709
-0.03632467509470725
-0.1298750336725312
-0.21212273943952017
-0.2575344330033022
-0.08044596369591163
0.04634887710262236
-0.09227515687389935
-0.1745236321902053
-0.19229597779908747
-0.04487374578710632
0.06371259167974787
-0.12199756274543323
-0.14393801951150917
-0.10826643560826364
-0.104895292205248
-0.10123490300967884
0.019759024206136636
-0.08480968060201993
-0.04019223509796611
-0.07204660060407338
-0.03797619533195907
-0.13074169031422414
-0.16667588677283304
-0.207418017108587
-0.13112748165342347
0.038662131960607075
-0.052447286423171785
-0.1257635540952102
-0.1309726199896937
-0.10767078558790938
-0.03012406736785948
-0.062205647722091216
-0.12045179507879049
-0.11979710507810411
-0.025928991532857205
-0.03366392158606388
-0.044457277399342125
-0.05026339886361164
-0.06060045321272845
-0.051289306996804264
-0.11244768513619481
-0.11328295578013713
-0.19662784717931991
-0.2084869703878004
-0.1379249897869803
-0.01871430476985703
-0.07107961864106643
-0.14447524361020306
-0.1786747313935909
-0.18068500837485268
-0.11386985649591012
0.018231534066970267
-0.030578209133929158
-0.12517613065006086
-0.17895949078394457
-0.1485188517248258
-0.03768191343877067
-0.01946460976064995
-0.12998663296021332
-0.14731189558503618
-0.13131996563518336
-0.1301412035920958
-0.1952425910657606
0.04559741121499226
-0.17757562511962977
-0.007584936814288866
-0.05741725078768097
0.0017585025441387311
-0.05358285705431606
-0.12757136630657506
-0.18027330238214223
-0.1377774999221136
-0.13414416814948768
-0.027563369303404087
-0.04651041609695753
-0.1470127679355887
-0.12002981296764148
-0.09161065431662534
-0.02836541377224096
-0.09981778294805492
-0.13115632943063207
-0.07480730379940169
-0.0892372863982816
-0.09927952579751581
-0.06618356317196893
-0.11380575348754303
-0.05300327419422835
-0.085603767768961
-0.0768680773227415
-0.15143233694845293
-0.16651340102537138
-0.21177297918347113
-0.1033199414662578
-0.06939268205710247
0.013631757482058355
-0.00398313474693437
-0.1283740480697744
-0.18564507248322873
-0.19258484161513592
-0.11941299424194367
-0.04501398245710794
0.023924786793103548
-0.16012508841353376
-0.20782145901796226
-0.12895953218980824
-0.09256897474842933
0.007085330751515555
-0.15226682817508574
-0.20710588511174186
-0.09862094972861062
-0.13613746115228154
-0.12889428754428597
0.013259174930877022
-0.12136919946385442
-0.04376815185296634
-0.08615749583796252
-0.041020610471757195
-0.0956265258999311
-0.1508071242560974
-0.15803076871854882
-0.1610947960762599
-0.13050798507238073
-0.02901303944586853
-0.09786291300195366
-0.14493385619496338
-0.13539388874363298
-0.14471131426272657
-0.10049581647814627
-0.1426333567873385
-0.11654408427730682
-0.1271026604715805
-0.14270261284927435
-0.10362593954174254
-0.022595946079977766
-0.06364234718597796
-0.001569371880601029
0.005825786613331396
-0.13321807229586013
-0.15931818128289302
-0.19234171888264542
-0.1333454597521442
-0.12551821518584813
-0.03820986098052101
-0.14904182835397742
-0.20858204022050375
-0.20994604176672646
-0.0960151440979078
-0.06833237167126806
-0.14979956545568618
-0.2733611086496855
-0.2071038266241055
-0.04738038991270129
-0.13949681173204043
-0.20439618185153566
-0.08974661298856974
-0.1095618079566531
-0.15303436672968693
-0.12184965070651528
-0.027812115052345338
-0.07359502466418942
-0.17954497432765623
-0.1623140854026094
-0.19289215192335227
-0.04244696614065105
-0.1596322428025131
-0.17570494018064906
-0.17728246785825175
-0.12912359622692063
-0.13476811685342538
-0.08444454513305927
-0.14305482017835794
-0.04365302076420138
-0.05561225283228466
-0.17462048249775516
-0.18870887517698912
-0.19075735932363982
-0.05172533865282839
-0.034925112245471714
-0.17166846778229325
-0.20980589437211714
-0.18097975736317362
-0.01757390851634116
-0.21138029163230423
-0.19137467163075692
-0.08893818883175596
-0.2126772380142352
-0.08327770626041732
-0.127886405062668
-0.028936241500027386
-0.15659328339049605
-0.1992901459565859
-0.1777334449703951
-0.10401874742417049
-0.17032659858350507
-0.13234726010144063
-0.1974559300831066
-0.10766672863227766
-0.05492968278170717
-0.1525073227272267
-0.19615571605762205
-0.10748637509771114
-0.010636440014281238
-0.16278921330167118
-0.16123618901052658
-0.059666043773734266
-0.149339173641673
-0.1301602389661771
-0.10062892097529995
-0.08279500471747786
-0.1848002437484704
-0.1805315232000445
-0.1471795008183423
-0.12430887350647922
-0.07590991807488366
-0.15986653120407632
-0.1674599776230297
-0.07188864102960563
-0.12178093329348198
-0.09820045768770831
-0.0946209405781568
-0.07763747550398438
-0.13425791256972278
-0.09896442993416926
-0.08443524744172827
-0.05002413290363358
-0.018695530910621996
-0.055822563647028194
-0.06875117767042861
</DataArray>
<DataArray type="Float64" Name="v" Format="ascii">
0
0
0
0
0
-6.754414386999145E-4
0
0
-0.0024905696907383543
0
0
-0.002421996287023165
0
0
-0.0019107486072233353
0
0
-0.0025086719229588275
0
0
-0.002063197442014396
0
0
-0.0021264911315248265
0
0
-0.0034314320743127507
0
0
-0.006094972548123869
0
0
0
0
0
0
0
0
0
0
0
0
0
0
0
0
0
0
0
0
0
0
0
0
0
0
0
0
0
0
0
0.019623792820033573
0
0
-0.003525197100060264
0.017554868378945487
0
-0.0018124348021912112
0.03168138174754539
0
-5.46498657616865E-4
6.237721458136679E-4
0
-0.02264697260804149
0
-4.3085766105069393E-4
0.004465719740973221
0
-5.207841415823335E-4
-5.391266954691526E-4
-0.01140627665040961
0
-0.0011475571737103885
0.010670191224841481
0
-0.0012196174956475585
-0.06164104616170205
0
0
-0.0015368577186419612
0
0.011534279969456497
0
0
-0.0017511524318560335
0
0
-0.02752555381590095
0
0
0.0013892043061968782
0
0
1.0165700333650691E-4
0
0
0.03401626512981689
0
0
-0.003518297217311852
0
0
-0.05407709189652396
0
0
0
0
0
0.0457126587986971
0
0.032227002169766115
0
-0.003906928708362795
0.05744321615963189
0.05819940014367964
0
-0.0012103622875738707
0.050038841981788124
0.025976615770940892
0
-1.0516372189604264E-4
-0.006293448983273286
-0.03957741278005678
0
0.011432393851655233
0
-0.03385262249090958
-1.9781165899960545E-4
-0.02189739387476258
0
-0.03475574471771859
-3.1588204739495913E-4
2.5583249303176884E-4
0.010129466322819143
0.0034683183306768884
0
-5.184306955135028E-4
0.027581404174518962
-3.473182934094427E-4
0
-0.0013402882580611682
-0.010291156376467518
0
0
1.0198259619851636E-5
0
0.014332632895867508
0
0.05328271848908708
0
-0.011676406192549596
0
0.044515345342373884
0
0.0052171173278946084
0
-0.02402170359292859
0
-0.013196967060361392
0
-0.00350051525244185
0
-0.002193567769256173
0
-0.014644827451533038
0
0.00344341262944982
0
0.01358649423288321
0
-0.021635223239463933
0
-0.012510363214927768
0
0
-0.024776035427692137
0
0
0
0
0.03941141346968177
0
-0.011690415689468209
0
-0.003199801307626373
0.09550145402268324
-0.007570647646231425
0
-0.0013714361734466095
0.04636940698928015
-0.008124762211978574
0
-3.7609991947119245E-4
0.01828172499851199
-0.004691094717922602
0
0.010728853720152316
0
-0.009146943227219624
-3.647883477545652E-4
0.006683311789773169
0
-0.027400005628210447
-4.382731406397523E-5
1.6940326678957548E-4
0.013869278673533865
-0.004444174622238797
0
-2.6334241171675933E-4
0.052215470835678984
0
-0.007541145373934297
-0.0011509391154393904
0.028956642413122468
0
0
5.559470979141205E-4
0
-0.009276264816186737
0
0.020899226186594618
0
-0.008391568472170284
0
0.06185839597097383
0
-0.003061008541123329
0
-0.052659396931055875
0
0.008721567328945114
0
-0.049078714388018606
0
0.03223090939719896
0
-0.02083685246267615
0
-0.00349073978895773
0
-0.013286133241750537
0
0
-0.024611499550529783
-0.014342898453966526
0
0
0.013520594894496479
0
0
0
0
0.016495015505977036
0
-0.027683515932194022
0
-0.003429103500895668
0.05278805297728581
0.014230264639841455
0
-0.001382917179374081
0.005053133692520532
-0.046744576056410386
0
-5.802159938464794E-5
0.02473129644663964
0.020344128113102752
0
-0.014443716132783503
0
-0.015461474718592827
-7.126936471756224E-4
-0.01705786729067443
0
-0.04214518319397264
7.290199482297273E-4
2.218521324541729E-4
0.010635264303414
0
0.014094679164761576
-3.916939797607196E-4
0.07437744108279908
0
0.03741896478646923
-8.438339847577832E-4
0.03356257251046647
0
0
-2.9707784052605357E-4
0
-0.009328103614478911
0
-0.0024419860543035536
0
-0.006385939080862251
0
0.022871043384782182
0
0.003943312258768885
0
-0.05634847252905114
0
0.02868215993912231
0
-0.01696179298598655
0
0.019894448921030882
0
-0.016441004672030617
0
0
0.008982607891621782
-0.04307233091545038
0
0
-0.004225145965362039
0.0018710128752796463
0
0
0.05952844489628562
0
0
0
0
0.019049175542016687
0
0.021171958006962185
0
-0.0036329478445957385
0.013280919895860594
0.016711832481701067
0
-0.0011871697989508173
-0.03439096095661031
0.016012299222239065
0
-3.66768439507135E-4
-0.024993758497167104
-0.031988202552861174
0
-0.010467455087460213
0
-0.0013704048153141473
-1.4677883034443597E-4
0
-0.01136230611494654
-0.03991016812099735
2.824972740085846E-4
-1.4513946099517204E-4
-0.025202745016119184
0
0.034967084351936746
1.9276738588137847E-4
0.04552061001760774
0
0.06302535758091671
-0.0013824927018406036
0.022397562456487205
0
0
1.6420392271599966E-4
0
0.002054886557662706
0
-0.010877160354252076
0
-0.009058462925383618
0
-0.01699248478733989
0
-0.009753363449467199
0
-0.05825336848684714
0
0.046430644037702605
0
-0.0355066802312816
0
0
0.05207325739935075
-9.922227463823425E-4
0
0
0.038520457964248855
-0.04026920109521848
0
0
0.05248157029477054
0.023441376118433995
0
0
0.07295429786607445
0
0
0
0
0.009002520254471284
0
0.04311245095864658
0
-0.003890989860363916
-0.004276435499784838
-0.001075341902988556
0
-0.0012752019106196046
-0.019177509726927718
-0.0291201532353695
0
-4.716614236126065E-4
-0.016842148238121038
0.008737510002956798
0
0
-0.01007858714948282
-0.04883412763787289
-6.66725083970197E-4
0
0.00472325458225863
-0.031293527988510074
-6.217504662429921E-4
-1.0359823337040101E-4
-0.014588098627051566
0
0.015218370657501437
-3.472151552923927E-4
0.043500847360874124
0
0.05205263087572052
-0.0010505528234741291
0.020329127762900533
0
0
6.617575509907002E-5
0
0.03247499044257939
0
0.014715382181171313
0
0.022353567018595408
0
-0.025075953707905833
0
1.2397198285342878E-4
0
-0.04915983963639595
0
0
0.05617282685770222
-0.019131564781577907
0
0
0.05184096866218894
-0.018693095340675384
0
0
0.06996427243064553
-0.04737430795426247
0
0
0.10337862808158381
0.027481382153821274
0
0
0.03910704976636017
0
0
0
0
-0.03866310636595238
0
0.002556418666097694
0
-0.004868121480091297
-0.05767053563159511
-0.03107569674642992
0
-0.002023029834062877
-0.02304080907124891
-0.010547923338454411
0
-0.0012256641786937519
-0.028949989083311697
0
-0.03859012262658704
0
-0.025260318203722872
-0.04546449210058844
-0.0015251091105112442
0
0.022097848068491906
-0.039126183003106246
-5.098104920724744E-4
-9.314192724367286E-4
0.010254428335250169
0
0.013414832928879643
-4.6357092110720083E-4
0.05475011883628253
0
0.036962480148067994
-0.0011006388720842528
0.0345092565195202
0
0
5.662912050816971E-4
0
-0.003555859525676775
0
-0.023312024838346494
0
-0.01412161255848965
0
-0.02187838312085301
0
0
0.013941904063799084
-0.06009442885463168
0
0
0.03519274458344116
0.0030335527306815566
0
0
0.029920015810974813
-0.026538469777899646
0
0
0.04017078789154671
-0.02085719330863384
0
0
0.0933838591697274
0.021882645781194702
0
0
-0.001783286131588154
0
0
0
0
-0.08794185286386097
0
-0.012417534170830713
0
-0.008000793387451728
-0.07879207171418769
-0.03173528596877407
0
-0.003939895082565211
-0.03979738748916695
0
-0.009296384077510126
-0.0026401312625597725
0.018358661154203083
0
-0.03818591940242721
0
-0.03876989377592757
-0.008899132270913148
-0.002620611285995274
0
0.021739582549979167
-0.01180053912969614
-0.002050149557698646
-0.002561487231469117
0.003352491142678807
0
0.03455592121647932
-0.002510552563529178
0.042036438831592575
0
-0.0014333518594089073
-0.0024081885399292844
0.014756451709538041
0
0
0.002350857610456686
0
-0.0048977675086657214
0
-0.015221210822001454
0
0
-0.03104080431418041
0.001662298329616452
0
0
0.004844761168559499
-0.053691587408642744
0
0
0.030107041722885735
0.00632767345085718
0
0
0.02910846419909997
-0.014481643506487155
0
0
0.008148620151304268
-0.0419334793904561
0
0
0.033858314480956296
0.01335564128072906
0
0
-0.007628378287284797
0
0
0
0
-0.1035875856326524
0
-0.013615320994152079
0
0
-0.0247151347606358
0
-0.02836925882557562
0
-0.0017855658427349144
0
-0.046098384469797055
0
0.021814437886746918
0
-0.035483070611345806
0
-0.04216382273570196
-3.2164925084777427E-4
0
0
0.005416864957326169
-0.013168437455791384
0
0
-0.01014038354326186
0
0.04851586059808053
0
0.04019449553072641
0
5.556036756687487E-5
0
0.026245269592490624
0
0
0
0
0
-0.0459120908129076
-0.0052157660098778305
0
0
-0.00834150243931061
0.004451562064481523
0
0
0.022537775189507572
-0.026818471006147437
0
0
0.020031048239020747
0.0017395984302321294
0
0
9.77477725407633E-4
0.018338838256674924
0
0
0.02059299358194955
-0.02604831296763632
0
0
0.011476658980714781
0.008578026620043477
0
0
-0.0011165445301595832
0
0
0
0
0
0
-0.01761589319726072
0
-0.029814748683323112
0
0.002233573017368491
0
-0.043676234508225914
0
-0.01570436942604136
0
-0.014416909046105581
0
-0.018552727650549553
0
-0.059077591730163574
0
-0.007220016480594578
0
0.0043931471625299765
0
-0.007489296775251089
0
-0.013439415626520422
0
0.04182151449087613
0
0.021578158027347975
0
0.045380908916172386
0
0
0
0
-0.044293424601101
0
0
-1.1811062694372345E-5
0
-0.01670468417034841
0
0.024512699294355386
0
-0.029176476169249895
0
-0.02989936907868666
0
0.006406530580681237
0
0.008648137577927048
0
0.020126892373590898
0
0.0179075381952476
0
0.015733828503734264
0
-0.01487370442686718
0
-0.024095692638763034
0
0
0
0
0
-0.012281701156894387
0
-0.03866290531494074
0
-0.02270277371428546
0
-0.032510116226181746
0
-0.010535882594689102
0
-0.01122790889672526
0
-0.032859372349271464
0
-0.003199941467447403
0
0.012427030403176102
0
0.02939515798430196
0
-0.011441494830051356
0
0.03564113398512666
0
0.005081465135919766
0
0
0
0
0.017128086803675075
0
0
-0.010346070260025299
0
-0.006320491705135184
0
0.008443577294771383
0
0.029015119372561963
0
-0.022418851812545118
0
0.009997770163316296
0
-0.00917759326363605
0
0.016014861953845102
0
-0.00970781370044177
0
-0.008888223048316738
0
0
0
0
0
0.01202417572511314
0
0.020877958399827257
0
-0.032448390647065756
0
-0.028268940696310325
0
0.00773269216769859
0
-0.020935105484162816
0
0.001639595246549985
0
0.014943739203072069
0
0.021784466451664316
0
0.028965813198661317
0
0.0041378611047543515
0
0
0
0
0.03381102411603835
0
0
0.020646667441244868
0
0.02814498548619936
0
0.006278530609606844
0
-0.002333459413489724
0
8.762871258837696E-5
0
-0.02469616518724382
0
0.011948584369263658
0
0.009336809391855059
0
0
0
0
0
-0.004445210697262377
0
-0.0014265701232980225
0
0.02200687156176112
0
-0.004472927482869804
0
0.0182272746297994
0
0.006425364203208124
0
8.789305263037043E-4
0
0.017814517903452287
0
-0.022562163009489152
0
0
0
0
-0.0029151346235023468
0
0
-0.007363621334374488
0
0.015250889248382355
0
0.008968677844033318
0
-0.005240246721190888
0
-0.021243348175404294
0
-0.004310091833851768
0
0
0
0
0
-0.009849959543609952
0
0.01691928925914898
0
-0.0013337821139633521
0
-0.004831777328358172
0
-0.015135626808964091
0
0.001773535687569778
0
0.007819161552260088
0
0
0
0
-0.003025313430579166
0
0
0.030183755985938022
0
-0.005298305876834817
0
0.017954326926113536
0
0.007552481492570093
0
0
0
0
0
0.004084227451608
0
0.008634393775446893
0
-0.015290541737760103
0
-0.013601688064601936
0
0.010802390588952902
0
0
0
0
0.021053090494094765
0
0
0.03495509161910392
0
-0.026656575306030158
0
0
0
0
0
0.013303534981352243
0
-0.009988298116109717
0
-0.016089015579791883
0
0
0
0
0.025343606519856777
0
0
0
0
0
0
0.003053808175193046
0
0
0
0
0
0
0
0
0
0
0
0.06525831086466181
0.03789957765190154
-0.003753605214768247
0.005907598503210986
-0.02476739684979602
-0.02668072966240621
0.010831061295479059
0.05982906482062528
-0.012391207872411318
0.021798467867601756
-0.02682353736912968
-0.024076408586380646
-0.011040301592305094
0.07239719247833644
0.004396297893191541
2.910074763382983E-4
-0.009182399108080915
-0.02591391592859217
-0.021986520556027237
-0.006728154161947827
-0.01614170375075595
0.022832163100460028
-0.029235706292626517
0.005297583136730024
-0.014489648094282328
0.01347332424545396
0.008362208984816079
0.05057840055918864
-0.0021952785412902415
0.021428075253914394
-0.02835127715871692
0.020617565662826017
0.01884523190343051
-0.0217838714498826
0.020230171265903384
-0.03058107890987723
-0.014920245234083604
0.05094536435894622
-0.043259456150001346
-0.030754021609378453