<?xml version="1.0" encoding="UTF-8"?>
<VTKFile type="UnstructuredGrid" version="0.1" byte_order="LittleEndian">
<UnstructuredGrid>
<Piece NumberOfPoints="1331" NumberOfCells="6000">
<PointData>
<DataArray type="Float64" Name="u" Format="ascii">
0
0
0
0
0
0.6289278575147074
0
0
0.7632161632550537
0
0
0.7860066440548419
0
0
0.7897268751429481
0
0
0.790449861193558
0
0
0.790252655992572
0
0
0.790340413904631
0
0
0.7806249905842607
0
0
0.6547665649126274
0
0
0
0
0
0
0
0
0
0
0
0
0
0
0
0
0
0
0
0
0
0
0
0
0
0
0
0
0
0
0
-0.2107852304764383
0
0
0.7737213962044333
0.10656632397762839
0
0.9297613201053211
0.1850075986650103
0
0.9561324127784677
0.25975887702207506
0
0.27165371521050097
0
0.9605796271268704
0.27058246760492616
0
0.9615572200412568
0.9607160838943957
0.24002908272809967
0
0.9574460888148296
0.08802409797068898
0
0.9339397290278608
-0.04749952299243331
0
0
0.8011756421894815
0
-0.14229723093104865
0
0
-0.09607519020920523
0
0
-0.03577085293532135
0
0
-0.04854476343784605
0
0
0.0026595293745700754
0
0
-0.0208705979973947
0
0
-0.0033076267527153967
0
0
0.008593906759467381
0
0
0
0
0
-0.19577480520168852
0
-0.13723960538468208
0
0.8009422927915123
0.17560556327174034
-0.041363124165593845
0
0.9604918786739577
0.3243149134050905
-0.011795060747180642
0
0.9881720355784124
0.3953510231538189
0.03372055659088346
0
0.018430012279437316
0
0.3958705414931167
0.9919610508086761
-0.06489355558502459
0
0.3710367012370412
0.993014426257328
0.9923211833202843
0.31253736367881296
-0.09220005822345874
0
0.9881346725075932
0.15254426744127322
-0.05018648189589369
0
0.9642853579062437
-0.03085074038469245
0
0
0.8137788434074141
0
-0.11845487331611522
0
-0.12996620247977683
0
-0.10362757375550086
0
-0.0957653152462279
0
-0.11025436443551183
0
-0.06429318166052124
0
-0.06433172333502978
0
-0.04775496717767994
0
-0.056187264611824016
0
-0.0571179546254578
0
0.004430326669590794
0
-0.014169111826462985
0
0.013956906795905444
0
-0.037840114457511016
0
0
-0.0016493950673139004
0
0
0
0
-0.1574877169799894
0
-0.12704600958399506
0
0.8053104722190051
0.20598587931476328
-0.09780263005546308
0
0.9664424389179355
0.37239921895635025
-0.08245067659594074
0
0.9930544976151907
0.4621609740051173
-0.05814043071460568
0
-0.08809170582060809
0
0.4926707207480448
0.9972025245123676
-0.06383130333629873
0
0.43223698980017694
0.9983479659451314
0.9980124029360162
0.3420021602285124
-0.02019216826339126
0
0.9939451929467177
0.1878224471692932
0
-0.06714781800681145
0.9679380750247953
-0.007115828065751387
0
0
0.8142662193257699
0
-0.098348827045466
0
-0.1262687316492079
0
-0.12537897719434007
0
-0.07744802179584219
0
-0.1040302968467532
0
-0.003538366772451808
0
-0.03830188173126358
0
-0.022509593233749462
0
-0.01605632035391952
0
-0.06315179516737833
0
-9.427877030283408E-4
0
-0.03838419737536123
0
0
-0.03297694201496427
-0.032920327783186175
0
0
-0.0018515228692651618
0
0
0
0
-0.18647613647067807
0
-0.1060338066298863
0
0.8068578120088231
0.2079436443750691
-0.13604642512439188
0
0.9668435181134386
0.3612331978133858
-0.12244856520402793
0
0.9937691961638486
0.45932707797927336
-0.13479477921743324
0
-0.08730693417196961
0
0.48807739289058044
0.9984625721272776
-0.019232227860432313
0
0.41641049529175217
0.9991085076082613
0.9986808556499072
0.3045124592548883
0
-0.06709375391626747
0.9944789716811667
0.1844774563759187
0
-0.05130062787171496
0.9685118241720047
-0.01994592822000231
0
0
0.8140183127880681
0
-0.10561037851420214
0
-0.1255272457761848
0
-0.11791317036808972
0
-0.056250194529350296
0
-0.0458713223775681
0
-0.010980999642014287
0
-0.03066749444965421
0
-0.02719902180276708
0
0.006837936020829606
0
-0.030837066925248496
0
0
-0.0361303425607086
-0.02180143633364168
0
0
-0.019675394165869765
-6.818094150239404E-4
0
0
5.648472515831092E-4
0
0
0
0
-0.17448288019205108
0
-0.11314006059590266
0
0.8069408096098302
0.17261243539572882
-0.12988459576579903
0
0.9668537103502515
0.3334720767302921
-0.15357517035481247
0
0.9934717570219752
0.38097244869497254
-0.08720298552441536
0
-0.021369735381853657
0
0.408168897301376
0.9975399694181686
0
-0.024620456259436475
0.4104861538484641
0.9985005668361088
0.998017251685649
0.3206072827212545
0
-0.045633717350233
0.9932609483304949
0.16614730358870744
0
-0.04977865762374131
0.9672881791476211
-0.027556649776663833
0
0
0.8132346998530166
0
-0.09197490369852851
0
-0.12416948349633283
0
-0.06064347831145225
0
-0.09289544623719537
0
-0.03216124321372879
0
-0.03313827575195541
0
0.007166715173991725
0
-0.05654700741818843
0
0
-0.039159248126819174
-0.014066368087481131
0
0
-0.07566866324279324
0.0015722829985567244
0
0
-0.0465036395570484
-0.010592926697368667
0
0
-0.01856724415727634
0
0
0
0
-0.1935377917857556
0
-0.10539076864911621
0
0.8060808210430169
0.13561608335686118
-0.12074539307697489
0
0.962298952501005
0.27707277903218147
-0.057760866609384724
0
0.9882065868262768
0.37240126061326
-0.017318794433770154
0
0
-0.06085001064202312
0.379516925461979
0.9927262035417
0
-0.05151272457840129
0.36621825163820976
0.9928994337737814
0.9924347052412816
0.3046986921877722
0
-0.06848401611262166
0.9877877238501962
0.15739552008525592
0
-0.06732720048543556
0.9616688848996285
-0.018198666508898356
0
0
0.8082532624007647
0
-0.10670392884062602
0
-0.14363113470699093
0
-0.047414373612210785
0
-0.06438720200932797
0
-0.027996660216092373
0
-0.05167232789151846
0
0
-0.027602301489148315
-0.060900936627551326
0
0
-0.08140732619184582
-0.024830529413671046
0
0
-0.07234931067258364
-0.002881138676198684
0
0
-0.03378350871050185
-0.025725945752883936
0
0
-0.006258018813619055
0
0
0
0
-0.216358784951409
0
-0.07708600745325905
0
0.7936047989315352
0.12029758806458239
-0.047121681314244296
0
0.932602233485103
0.30171146085662026
-0.04019147784448484
0
0.9582164731409274
0.3610562381000564
0
-0.02278335240112654
0
-0.045871117062636836
0.40750434975681255
0.9614859500106777
0
-0.029250095174473748
0.3780621143653382
0.9607602960380822
0.9605628223294717
0.3577982555456271
0
-0.06539975211451486
0.9564942490698526
0.20748682110752356
0
-0.07152276559941574
0.9309751687869893
-0.012105361937829873
0
0
0.7807470940749432
0
-0.011750842830498398
0
-0.14541079367818946
0
-0.04926003161675278
0
-0.05479182491843695
0
0
0.006561858952405938
-0.019271012166016507
0
0
-0.04848300796839635
-0.0026393956285249414
0
0
-0.07110255454328514
-0.023947890585772406
0
0
-0.04966904381991813
-0.02483608097736496
0
0
-0.022886362802671426
-0.021243078059440465
0
0
-0.030597279124479303
0
0
0
0
-0.20088527404205872
0
0.0046283410770641955
0
0.6465556454742175
0.14626508969987564
0.00785754657153385
0
0.7804765572553664
0.27829203981673606
0
-0.03180814737035031
0.7905112484219217
0.32342155205512135
0
-0.039609239674024306
0
-0.017267235040890946
0.3836119848383451
0.7907733293751845
0
4.347268076949329E-4
0.381958841120044
0.7909847411996135
0.7898339092778635
0.30000591057948717
0
-0.06707313636207403
0.7865878577114104
0.19270333729386738
0
-0.08216654647070504
0.7644281173772894
-0.0010038508831505244
0
0
0.6360279867388389
0
-0.028632451389802454
0
-0.1432855421393472
0
0
-0.01646861656746577
-0.05195204936307127
0
0
-0.03762548228485155
-0.030783393346266192
0
0
-0.08979191144777982
-0.05691308044447351
0
0
-0.08591820809578142
0.01273472020796035
0
0
-0.04902603876037972
-0.0023748258229062268
0
0
-0.0795133786252607
-0.02604745790237029
0
0
-0.010554560591524707
0
0
0
0
-0.21738532262328727
0
-0.014374880772348884
0
0
0.1330330413295702
0
0.013556360713404199
0
0.2210288665065212
0
-0.03084622473613584
0
0.2634563632746311
0
-0.03813566197183104
0
-0.011531185624451655
0.2795086422206641
0
0
-0.015676574209092357
0.26930167492997986
0
0
0.1932550418642095
0
-0.046164361799154376
0
0.0955965531705008
0
-0.10549152575464332
0
-0.06298169393927074
0
0
0
0
0
0.007871599144848704
-0.11087738388459108
0
0
-0.03860178290772031
-0.06742604662678359
0
0
-0.0535120410170875
-0.021775746789795977
0
0
-0.08462944041651353
-0.057513091694575864
0
0
-0.04947722577181931
-3.6240091506046314E-4
0
0
-0.07457831445386075
0.01156427136011756
0
0
-0.04265882758980367
-0.0063269721040835605
0
0
-0.03287964844555625
0
0
0
0
0
0
-0.005698296681866489
0
-0.0834488687213521
0
0.0063314213980510394
0
-0.008506050968419802
0
-0.0366387619768972
0
-0.03138916946834825
0
-0.036272628961878446
0
0.008342920325253215
0
-0.034467937295679325
0
-0.033685381241996167
0
-0.03663769934430205
0
-0.07397828951603769
0
-0.089662925917104
0
-0.10222678015412928
0
-0.0678046660174812
0
0
0
0
-0.014041142261913385
0
0
-0.021149320735456903
0
-0.09577380707636447
0
-0.05112969030046913
0
-0.07784114924405473
0
-0.055695455282294144
0
-0.04759100264945973
0
-0.06659021460775284
0
-0.017570506328618767
0
-0.11188289842923242
0
-0.020631203971250053
0
-0.04839132660116982
0
-0.03168165636044459
0
0
0
0
0
-0.0029569653486100373
0
-0.10852183371176859
0
-0.05227274211250547
0
-0.07741743171989285
0
-0.007303946178146606
0
-0.1332524920236341
0
-0.05424249603709374
0
-0.020883106725183634
0
-0.1320710924086518
0
-0.06270269779149869
0
-0.11600509871954488
0
-0.1296694674020649
0
-0.055253813298535764
0
0
0
0
0.004777357634542376
0
0
-0.04084174625231282
0
-0.07213143204909712
0
-0.06337429702630477
0
-0.04982786636858715
0
-0.07549919082818925
0
-0.051427023752709494
0
-0.12228768815738582
0
-0.017474800589710886
0
-0.06448059603866924
0
-0.0814819116699081
0
0
0
0
0
0.022944767835388916
0
-0.054367390972184154
0
-0.04161412429751766
0
-0.043772113952038866
0
-0.025618660129370266
0
-0.08720014518773284
0
-0.01509807347972438
0
-0.04825665288419403
0
-0.08110319695444733
0
-0.041720407329697534
0
-0.06574917079766289
0
0
0
0
-0.03104284676451319
0
0
-0.04255352951241564
0
-0.04493710237838123
0
-0.08854400735294005
0
-0.05710675731101061
0
-0.09702452868790963
0
-0.03746919286751457
0
-0.08024566244063956
0
-0.06431344337183471
0
0
0
0
0
0.01036758786948821
0
-0.06687194314510946
0
-0.02068432573535496
0
-0.061167588334155136
0
-0.0441997754426072
0
-0.04900983780534598
0
0.0034405343046262217
0
-0.00743536733330117
0
-0.03244988507626833
0
0
0
0
-0.03008185859207943
0
0
-0.0597277505411587
0
-0.07079179025428754
0
-0.10142714329016565
0
-0.0388129663473813
0
-0.0862759467938272
0
-0.06337321438249838
0
0
0
0
0
-0.031718849469673856
0
-0.06125431221712888
0
-0.024772328424304806
0
-0.0186028238477647
0
-0.011139150258924061
0
0.008042521463728414
0
0.01570184710838474
0
0
0
0
0.0021702526463509564
0
0
-0.061851657146294814
0
-0.041795135871274154
0
-0.01923688377491462
0
-0.06375000341990165
0
0
0
0
0
0.03000345213724331
0
-0.02116752818128502
0
-0.021402275165528048
0
-0.0028980959775659083
0
-0.005978914159716619
0
0
0
0
-0.030300626610928586
0
0
-0.007762798923389933
0
-0.01770909542838583
0
0
0
0
0
-0.01549275524526241
0
-0.010177500858791875
0
-0.00850646038551181
0
0
0
0
-0.02645551239293153
0
0
0
0
0
0
-0.011450276481844634
0
0
0
0
0
0
0
0
0
0
0
-0.08082275450734679
-0.029375382879706462
0.011907021732590098
0.020314941819434048
0.04021465782076684
-0.02293000384053702
-0.09245875181292625
-0.13017675385569308
-0.12166072669612016
-0.10355034050693496
-0.10452910663388208
-0.04744179794955058
-0.04289928844175107
-0.06327300892634778
-0.09382568206497605
-0.002428021004304094
-0.10982401357365122
0.06672985370646288
-0.11127899315430141
0.09947725829724959
-0.09497568617344783
-0.09862261861798934
0.06368990138439877
-0.07777462384665529
8.422713765581205E-4
-0.04880554742682433
-0.14086023155081276
-0.12329497975484494
-0.19418613521815595
-0.09382835346929867
-0.1563819846603428
-0.05827883554774172
-0.11833838478404347
-0.07764055142513993
-0.05418602796949596
-0.08453740155708434
-0.08904342792033071
-0.07368494707471497
-0.13652130149972577
-0.14596264400414646
0.014377272220057137
-0.12583209350535493
-0.13541187636442661
0.08419016893079895
-0.09332932231981234
-0.16933433789802474
0.1019500219167266
-0.1071660893890667
-0.16492435910062408
-0.09963884958698487
-0.12210110436097155
0.0356068082650333
-0.11363743591171437
-0.013373124288696797
-0.09311979969124096
-0.21200581289312004
-0.1445115046860921
-0.122104621171808
-0.17632260571317412
-0.13770049062864761
-0.07938674541418284
-0.13867383017534915
-0.13988240916958097
-0.11049034330900048
-0.10823391243754661
-0.13314076709510395
-0.11772913428774186
-0.1163428263716376
-0.09333424359850744
-0.05276899511171754
-0.11967863003882064
-0.13764617005189303
-0.16730790160027376
-0.2098797490830228
-0.026280543530976235
-0.12190421193392535
-0.15151283303677995
-0.18154759960083847
0.03569302724285958
-0.135327064598061
-0.18451054318721927
-0.16521361090086242
0.03696318898263748
-0.14676530747767072
-0.17322340223162247
-0.1256359268144022
-0.12616113219288913
-0.1366487710645687
0.06120518764663239
-0.12346502061303298
-0.018458411406066636
-0.10167105271148798
-0.20867795126974006
-0.23584461232596587
-0.1556431064340966
-0.0979354942044452
-0.16726693860401187
-0.2162841393160501
-0.18722527891635501
-0.10093103510227235
-0.11096486739481644
-0.19609557009026723
-0.17716344459556635
-0.12330444180145504
-0.1225205747891445
-0.14841663325261012
-0.04067289413348171
-0.14620426290995073
-0.05884261437024272
-0.041028291671410096
-0.10964214694390063
-0.08722746294141087
-0.19494372663853718
-0.2245003466636497
-0.2095861606177921
-0.02664650246038924
-0.12359888672881607
-0.1979430309879078
-0.21266328100826729
-0.13998414714642882
0.0231222772521491
-0.14606679753822227
-0.14654893724146764
-0.18984462018092263
-0.06720963618830812
0.04735119937598012
-0.15440675353013547
-0.15930368178345067
-0.13063076659830222
-0.11789090909340012
-0.146588514544133
-2.1900510138000813E-4
-0.15377182328217798
-0.01864391703625029
-0.0995165929067232
-0.1441265774291227
-0.2226633495169769
-0.21998928046079883
-0.14862370672893688
-0.1156008101454445
-0.046168692319398554
-0.21156399425237604
-0.2438661758267179
-0.12709177106754158
-0.07788202059878663
-0.12413061619976669
-0.18058134042051713
-0.13968126232946035
-0.08614942971607122
-0.15447672136744336
-0.09978723626953316
-0.06728831624570349
-0.05392218574459581
-0.06854116253390961
-0.03421059658651061
-0.06678220262709249
-0.14154039550176287
-0.16065303051923283
-0.21077804086291485
-0.22261398468098373
-0.10180108724530566
-0.030530230711358065
-0.1482274289934833
-0.1344941522200376
-0.1968572990681748
-0.1534457014484997
-0.05618049832145824
6.045267627664326E-4
-0.10906053084543098
-0.138893281722151
-0.1760805537917229
-0.11271268704850888
0.004366536085611355
-0.1515892410540465
-0.11955348486164262
-0.10106570269970794
-0.0874866493077577
-0.12448199720097575
-0.0018847569337177201
-0.11585464927492946
-0.03459417811985633
-0.06692663011022175
-0.02999301757959849
-0.1590710708054889
-0.2312779324609288
-0.16450691385458327
-0.1262056852337539
-0.10644951444489482
-0.12169111313656215
-0.23011183845890493
-0.18238515593206106
-0.12111567445354286
-0.043569665426141296
-0.13752899928880793
-0.14689746020588632
-0.11340023788658952
-0.05760907102577862
-0.10818469950579958
-0.11097437379862372
-0.09231028270050497
-0.06615322609615622
-0.06586643778183722
-0.08819893347910064
-0.13446600518131926
-0.12761988692044537
-0.1476010561485266
-0.18646002947528728
-0.23068362074195534
-0.10631071714911267
-0.01691952030512756
-0.028835328773971953
-0.09076589748360336
-0.1514845668704137
-0.20263398282523595
-0.1498305622149473
-0.061255015723031325
-0.017682385654285333
-0.12173837999858354
-0.182353263955679
-0.14013745637349576
-0.08359804109463063
-0.006887261242424642
-0.12448263267157704
-0.14750772668916004
-0.10286817771707439
-0.0518270816214812
-0.1341466136337878
-0.03248446070493147
-0.10984902872131475
-0.06514630101562767
-0.08167665848230216
-0.05021548503955265
-0.16682314718942293
-0.24830916946828366
-0.13215993171681462
-0.11085561277511796
-0.08108977309500526
-0.09601455469133097
-0.22549646531521741
-0.15182237491510134
-0.10048383597954064
-0.09301725780945658
-0.1343319412830467
-0.13925524692276778
-0.09355629708869335
-0.08546732765210391
-0.1161542154598081
-0.09435420654661882
-0.01358274151037542
-0.10124803690341617
-0.023729537098639633
-0.05097535531028926
-0.12863677764290757
-0.17463586600033174
-0.15682166348652335
-0.1935775233132855
-0.11394288311149982
-0.01634784245991187
-0.07997226654921775
-0.16588976064897756
-0.16994002791219376
-0.12609809122901927
-0.07725965445151604
-0.11592020790274975
-0.1711274127311987
-0.13281739791010813
-0.058937387428093395
-0.16887302556517095
-0.13484428029715825
-0.008812911739809583
-0.08229815994416388
-0.1859826126808154
-0.14171008085295952
-0.07641857767256338
-0.18418025781865752
-0.15839102261773833
-0.14795633092099578
-0.11557057718777437
-0.12596285462113435
-0.15114752615335322
-0.10149938601136127
-0.07961460740895919
-0.11510195137888703
-0.1055094183853731
-0.0685955914151873
-0.07712491656383903
-0.07863916521399122
-0.0648972920097617
-0.15194398491752958
-0.17538049628117536
-0.15848412824175007
-0.13158251442484128
-0.06163674391102917
-0.11624115894594224
-0.13920639489210684
-0.13739148580665705
-0.062052233018330794
-0.12153820923532034
-0.10085977645537088
-0.08434339767501986
-0.12307237827126165
-0.05269896594150227
-0.12894097414024988
-0.09759828693559651
-0.1509312878923014
-0.11583553492748955
-0.1165441799519593
-0.1156310923411006
-0.11931172814866343
-0.10494449671005485
-0.09710370265618003
-0.06586437202513633
-0.08560735945472019
-0.11273107276240303
-0.10575224530396056
-0.1257016435653878
-0.08563197476207912
-0.07679914055761154
-0.11218603158090314
-0.10993540470104927
-0.07816709262132533
-0.0589189911370489
-0.07996360858597563
-0.10657356998301544
-0.1455961951828271
-0.09743999588438655
-0.1072756329992905
-0.036810396202057866
-0.05205543521924016
-0.053334105278122594
-0.11426560661484718
-0.08190328157955712
-0.027244882288006686
-0.06934306154524188
-0.0048629756100466845
-0.10095062810681348
-0.018052246134080015
-0.0858981665238589
-0.040511161054508256
-0.09398732876813683
-0.02595597618161837
-0.10440941363999473
-0.04549843828187525
</DataArray>
<DataArray type="Float64" Name="v" Format="ascii">
0
0
0
0
0
-3.5719625618838615E-4
0
0
-0.0025885561028196574
0
0
-0.0025732143667918012
0
0
-0.0021320218579868083
0
0
-0.0022659011071797168
0
0
-0.0023061804659382508
0
0
-0.0019801866770888733
0
0
-0.00336189729921569
0
0
-0.005933256016888592
0
0
0
0
0
0
0
0
0
0
0
0
0
0
0
0
0
0
0
0
0
0
0
0
0
0
0
0
0
0
0
-0.020421115487153144
0
0
-0.0035386806534103356
-0.0014119291837681276
0
-0.0015061910161784152
-0.005325660004733264
0
-4.3672000504347506E-4
0.013290127755258846
0
0.011929853497420019
0
-0.0010524797844513787
-0.0023006885798187997
0
-7.419208365859752E-4
-5.89495580115916E-4
-0.026499840843352662
0
-0.0013278866319195255
-0.022987854472760565
0
-0.0012141728724793888
-0.037747804805565804
0
0
-0.00142405963043158
0
-0.042822665958456525
0
0
-5.072186579704628E-5
0
0
-0.001346728181546516
0
0
-0.007802379606292238
0
0
0.030077919150139614
0
0
0.019843186196343735
0
0
-0.0064613243557999885
0
0
0.0038533400220795585
0
0
0
0
0
-0.03903858942318327
0
0.01163477969832997
0
-0.00401988977851668
0.006555031070763383
-0.00139244880148014
0
-0.001208116704727437
-0.009265229057790612
0.01729209547638127
0
-5.295674069907151E-4
0.0035181279606162305
0.01272896569031085
0
-0.011421084517645142
0
-0.029680602153580888
-3.561534611308276E-4
-0.021361597641490038
0
-1.9544956506519667E-4
-2.2387122855790527E-4
-3.580391082489332E-5
-0.03188531241989115
-0.01173137588281886
0
-4.715438166774249E-4
-0.030469807328979786
-0.011527645861906908
0
-0.00180513182386999
-0.036632750484824256
0
0
-1.9238104783991537E-4
0
0.003177304991355517
0
-0.03951768866777097
0
-0.01802422076853559
0
-0.005082703833108813
0
-0.015906864220575304
0
-0.027535481076999335
0
0.009459293682769017
0
0.0016089637558144986
0
-0.013479443178100327
0
-0.0016640918927105326
0
0.010483570359743953
0
0.001543515312691211
0
0.01149261490143102
0
-0.007080119609829959
0
0
-0.003376630471405072
0
0
0
0
-0.025190351485455634
0
-0.010550512558631072
0
-0.003984636540200667
0.012061256750646088
0.0017182043813996932
0
-0.0012490091940756836
-0.0035050084209877473
0.03368744366904083
0
-3.0471877589197994E-4
-0.01603836502346778
-0.0036185560942899307
0
-0.03677806726871279
0
-0.010641985782797896
4.4391133318424194E-5
-0.004582820988971435
0
-0.006933584429143289
-1.1279667098794005E-4
-3.569231383217099E-4
-0.028482119415817426
-0.01644068187383935
0
-5.640462094985682E-4
-0.025306821443147956
0
-0.025169900141248435
-9.988456164278189E-4
-0.0218429663564409
0
0
1.1972416636483214E-4
0
-0.002829524166125622
0
-0.0017275599310575013
0
0.016784922582359103
0
0.011814831925680856
0
0.028986201716661403
0
-0.03628286806225448
0
0.047887392983675364
0
0.024043504059764746
0
0.01463559956010707
0
3.246999407357147E-4
0
7.768604724693295E-4
0
-0.020018099201861664
0
0
-0.005243054026285262
-0.007091035607853984
0
0
-0.03610173907071614
0
0
0
0
-0.013763100824233489
0
-0.011788209996166359
0
-0.0034579015065559263
0.01988448899984852
4.0104085827975133E-4
0
-5.753671611759694E-4
0.0021779346885394467
0.008089547315944743
0
-5.153195866747149E-4
-0.0022038194414659104
0.022488374730835814
0
0.02235494224185081
0
0.01190376851380256
6.477547322293119E-6
-0.047010151428226704
0
0.013037059205665705
3.815076225355875E-5
7.098440365009073E-5
0.01616907842149257
0
-0.02023932563145336
3.469762953221351E-5
0.014363389222877944
0
-0.003978942708170725
-0.0012352406808876129
-0.0062717848991986356
0
0
-8.779612406533965E-5
0
-0.001884186296324845
0
0.023384702327844287
0
0.036585150694797154
0
-0.007342190319214383
0
0.028438755235952195
0
-0.018896935392212752
0
-0.0334201752589186
0
0.05567650075258169
0
-0.012734643048526223
0
-0.003247566881235868
0
0
-0.00531245060144207
-0.007757053980104382
0
0
-0.016065504601596375
-0.02411480890897044
0
0
-0.04712966593234788
0
0
0
0
-0.03523742549500763
0
0.005511647848274958
0
-0.003770053113630212
-0.010520971660273305
0.01894116420350145
0
-0.0011441198612356476
0.011489867758944007
-0.017462975508747498
0
-3.023797926415656E-4
0.021871409887806715
0.06257191947655015
0
0.02840265926827631
0
-0.012731276328654876
-4.854079420560957E-4
0
-0.027035882968996713
0.0037936055634499276
8.515844699063709E-5
-5.599306261580022E-4
0.019658674175842047
0
-0.01081161074771119
8.174379037435713E-5
0.030695484360967768
0
0.014613320669374248
-3.8679018950979173E-4
-0.012462030142653435
0
0
-8.473149034696546E-5
0
0.009708330241782108
0
0.039306535181484296
0
0.007460958676534245
0
-0.008106128294812803
0
-0.026389906160866186
0
0.018417672481315383
0
0.001927938570074628
0
0.004132118150949714
0
0
-0.04019790693412142
4.686859560450955E-4
0
0
-0.04144215842752775
0.01241089149047814
0
0
-0.04179565229266901
-0.028467925965780776
0
0
-0.0290770349002416
0
0
0
0
-0.052827270324284775
0
-0.03249746580493008
0
-0.0035554404373924838
-0.03255154105354167
-0.0034576608796383786
0
-0.0016595364376624279
-0.001849216049577926
0.026296985104524672
0
-8.727419119931907E-4
0.03159833881387553
6.834309409761229E-5
0
0
0.01924500639919852
0.004874334981668668
-4.4341229655313715E-4
0
-0.026042964595238957
-0.006683283842877946
-0.0010697279269112246
1.1575950612120223E-4
0.020279509261575183
0
-0.006382442535034728
-8.260631956754968E-4
0.048885576829766825
0
0.0016967486378394814
-0.0014002768195802101
0.03101771836958736
0
0
9.615159166068728E-5
0
-0.04099351099359869
0
-0.01833006837905199
0
-0.012901649821412266
0
-0.006161351592728809
0
-0.040178781679186655
0
0.0032795382727240727
0
0
0.001701319267716766
-0.02156733967419017
0
0
-0.011527785448605719
-0.005542031072660727
0
0
-0.03728767421104993
0.01340155158321338
0
0
-0.0796186506585184
-0.001050657465034061
0
0
0.0027578460080736893
0
0
0
0
-0.07075200374152352
0
0.008432341473746661
0
-0.004873808972076865
-0.06484931085718565
0.005986161009090582
0
-0.001449531979069069
-0.011421284810039706
-0.015755535604672962
0
-0.0010582019675471261
0.01262193967510398
0
0.02059236731672419
0
-0.012194775862045697
6.193324201090554E-4
-0.0013589686191276247
0
-0.02123380106612643
-0.011090633829396242
-8.019920365318177E-4
-7.344490866785447E-4
0.005002712596095276
0
0.03077134348743546
-0.0017015264427235634
0.05521127524213885
0
-0.00899818803062105
-0.0012133663434942164
0.059641914254121596
0
0
7.919340991935116E-5
0
-0.02133722988481769
0
-0.03407095170794076
0
-0.015415009066442381
0
-0.006145155080422292
0
0
-0.07142629221563618
0.0020052950447205214
0
0
0.01805142005042654
-0.021554046460203216
0
0
-0.007094415083541879
-0.02534694644220913
0
0
-0.046551591897996535
-0.008237556432044149
0
0
-0.06979025503152993
0.004856545273611418
0
0
-0.013540790336634962
0
0
0
0
-0.05373602069188977
0
0.01539052494313947
0
-0.007993896609702457
-0.06381456109534082
0.012790409532877042
0
-0.003783269523690983
-0.02300525455788581
0
0.007387816979226026
-0.002137501575834813
-0.0394180010522274
0
0.0544947564057979
0
-0.011894211760149207
-0.0035359849389230654
-0.0024101701917020424
0
0.013361474876201323
-0.011881785892203433
-0.0026199647667454764
-0.0026484340029703473
0.012961565622689348
0
0.019349240122581827
-0.0020739534510212866
0.05383671594416786
0
-0.017895690769751713
-0.0025762669584058193
0.03162245265531216
0
0
0.0014559809926219473
0
-0.014027592357198687
0
-0.07205244137919746
0
0
-0.019826211609310206
-0.003146404535326145
0
0
-0.055491332906366125
0.02905692376588542
0
0
-0.01751466372520261
0.005001974582696144
0
0
-0.026543424358073584
-0.007784636798084968
0
0
-0.03483288356757242
-0.034272086446826215
0
0
-0.02327781852303464
0.021008595312969294
0
0
-0.007469448630896789
0
0
0
0
-0.1011215949882202
0
-4.629588448051667E-4
0
0
-0.0417731810887709
0
-0.008104712091096063
0
-0.002923666020757248
0
0.013450036306707153
0
-0.0408474392244412
0
0.05571985481346158
0
0.0034932174129416508
-0.009528912699980352
0
0
0.01319915488002441
-0.023192972602550866
0
0
-0.011141693849591176
0
0.0013973515066400507
0
0.048212360495622754
0
-0.02302913306419874
0
0.037906107073721135
0
0
0
0
0
0.0023595025446315463
-0.056013226549059165
0
0
-0.04312807752552383
-0.023709953324863853
0
0
-0.008359397044651164
0.03770997711138577
0
0
-0.008444751190653596
0.008465894534282566
0
0
-0.011097626579017979
-0.02280976360810462
0
0
-0.035186647764137824
-0.007147782928212619
0
0
0.008091014084599954
0.007385140260856672
0
0
-0.0021033508405110674
0
0
0
0
0
0
-0.01882766427399057
0
-0.02009294943191285
0
0.019582369878942227
0
-0.03201355622666125
0
0.031215099048323508
0
0.02018363896542531
0
0.05873734753518046
0
-0.013799496195942782
0
0.026155214326024735
0
-5.179897048109191E-4
0
0.02961367188922748
0
0.039414552986416246
0
-0.01688314602674669
0
0.00401463553362895
0
0.020770867797607503
0
0
0
0
-0.019871818949760253
0
0
-0.03731076261816649
0
-0.007009686132815903
0
0.01717313673483539
0
-0.03974808952738019
0
0.001163754539005007
0
0.0180375168247241
0
-0.00789104503498033
0
-3.0086891688493536E-4
0
-0.024268667683913604
0
-0.015137956863750154
0
-0.007768469307110227
0
-0.029651667274828163
0
0
0
0
0
-0.023777018477476927
0
-0.013253223575579716
0
-0.00958137386266447
0
0.020384007276099677
0
0.049380194201038535
0
0.007447279380185338
0
0.015337538713380951
0
-0.05761227069873432
0
-0.00967724694501129
0
0.015925429803765306
0
0.03481403371861861
0
-0.011489940313767627
0
0.010936335424420239
0
0
0
0
-0.034500739773360774
0
0
-0.03860813680961205
0
0.01414580832642348
0
0.004260590579772071
0
0.011347226777419837
0
0.0025060457804542222
0
0.028032526859998127
0
-0.004109571299539265
0
0.01320695564473607
0
-0.031131269239617728
0
-0.004707805330741946
0
0
0
0
0
-0.010332751543240766
0
-8.87176476443024E-4
0
-0.016588333944384418
0
0.021237178215305533
0
0.030658357662381227
0
0.01119435060562954
0
0.012168451698446993
0
-0.009435942758142355
0
-0.0031466376092351193
0
8.331744501568556E-5
0
-0.005192778661236783
0
0
0
0
-0.050608131628329805
0
0
-0.027418236477150724
0
-0.014468075136540472
0
0.01642410941599572
0
-0.012611002028616682
0
-0.022879699187521595
0
0.02288644436727039
0
0.03160067164536576
0
0.005993913658177554
0
0
0
0
0
0.012571049778030358
0
0.0014433005907965584
0
0.0025171180447291445
0
-0.015475066524374416
0
0.05926689506139438
0
0.015626785904205683
0
-0.005047593542781999
0
0.018447277436505535
0
0.004754891541022956
0
0
0
0
-0.03090608860733757
0
0
-0.023852321063911205
0
-0.01185652208316731
0
-0.01974933294400821
0
-0.003447780318386424
0
-0.018226525759449105
0
-0.024811957026992282
0
0
0
0
0
0.013050984534983193
0
-0.016004798992237484
0
0.026928003623173494
0
0.015949700000511987
0
0.023772242145896013
0
0.04101437290693421
0
-2.2902523983214543E-4
0
0
0
0
-0.03415168741434574
0
0
0.014422772040503259
0
-0.023455490154495145
0
-0.02248181516669502
0
-0.015991759334738672
0
0
0
0
0
0.012469005582504767
0
-0.010370385337944822
0
0.06240816321513735
0
0.019816666781125692
0
0.01808751749575915
0
0
0
0
-0.00514567983267976
0
0
0.008217377690465691
0
-0.02341637825980299
0
0
0
0
0
-0.03475010931040975
0
0.0196684196953904
0
0.015977122273890036
0
0
0
0
-0.016244207247618398
0
0
0
0
0
0
0.0108432284005921
0
0
0
0
0
0
0
0
0
0
0
0.011238361792413299
0.009617904052287267
0.026038424376104038
0.05229367224775006
0.029617326924787763
-0.0131067101438031
0.014937272578338595
0.007638549690000061
0.002559868078294752
-0.010254126251004976
-0.00491282589659704
0.028276790765791492
-0.0020867051613771303
0.013059540961943637
0.023720027397604444
-0.019458091169648598
0.010754428153559627
0.0295402436335248
0.047674015163215816
0.04119448117497016
-0.013247314780737374
-0.008775187445910484
0.021216643687769057
0.017303202683542736
0.007825391992713308
0.029969881171650812
0.010107907038756836
0.02331281684480123
0.012973732362619892
0.03453063972611751
0.0213780141552764
5.093195327822356E-4
0.04978698148219432
-0.006237250435968585
0.041355348588662515
0.012604215948321453
-0.027565344596781314
0.002243504854952325