<?xml version="1.0" encoding="UTF-8"?>
<VTKFile type="UnstructuredGrid" version="0.1" byte_order="LittleEndian">
<UnstructuredGrid>
<Piece NumberOfPoints="1331" NumberOfCells="6000">
<PointData>
<DataArray type="Float64" Name="u" Format="ascii">
0
0
0
0
0
0.6290995531529735
0
0
0.7631645946447404
0
0
0.7863455210926221
0
0
0.790280586550705
0
0
0.7906034255648783
0
0
0.7907809260153345
0
0
0.7901289573294007
0
0
0.7807907161660922
0
0
0.6548585359767994
0
0
0
0
0
0
0
0
0
0
0
0
0
0
0
0
0
0
0
0
0
0
0
0
0
0
0
0
0
0
0
-0.20463280707760612
0
0
0.7739797868096011
0.10407992826692186
0
0.929457496441423
0.18663072923372315
0
0.9563923011174128
0.23616356478750508
0
0.2557644386029115
0
0.9606045681639425
0.2648626727301518
0
0.9615098710119571
0.9615497442218163
0.21629627652546454
0
0.9580085761874281
0.1291499533230995
0
0.9337395103362501
-0.02171521676669609
0
0
0.8005118489691236
0
-0.11051430579645323
0
0
-0.03325542776036409
0
0
-0.04660021162189268
0
0
-0.026069865148970403
0
0
-0.026784900783122578
0
0
-0.02113721075040427
0
0
0.0012349103141719305
0
0
-0.022271942963020323
0
0
0
0
0
-0.17563579725981168
0
-0.04061938012782274
0
0.8010333397419825
0.1122062123581601
-0.0341448738420486
0
0.9607258972664608
0.25166118837518253
-0.04880295751783038
0
0.9879650704898973
0.3885204738056609
-0.04785565736369821
0
-0.03547870502151843
0
0.3856303780516536
0.9923559199035789
-0.034705005709464144
0
0.36821648047658306
0.993134831417075
0.9921506419732739
0.30296584267416704
-0.06887321725593744
0
0.9880595151987012
0.18426270360296296
-0.07484637480373718
0
0.9641000534523569
-0.0022977650176471427
0
0
0.8135890745986211
0
-0.07117332236176004
0
-0.15082280652912725
0
-0.09338325859040125
0
-0.0764856379804511
0
-0.05193494056513068
0
-0.03367204698815306
0
-0.052256644013258115
0
-0.03421379592040789
0
-0.02583256906735264
0
-0.008292317194902319
0
-0.014765712975924493
0
-0.01739167015970901
0
-0.02269306000270023
0
-0.0071851394806973145
0
0
0.012268279390090253
0
0
0
0
-0.21178676029369792
0
-0.11267920638371572
0
0.8058624336965606
0.12826635273752804
-0.1267058697481659
0
0.9661603864477795
0.30739614451412195
-0.1422438898412697
0
0.9935821024729772
0.39208895667974203
-0.13240534869337836
0
-0.09265199884208425
0
0.4525613737795881
0.9973021966803319
-0.09651219793336167
0
0.44459403589951124
0.9981470931559541
0.9980290658271022
0.3600478279097538
-0.018991220301604494
0
0.9940214312428689
0.21106169254368912
0
-0.056735009819389885
0.9682421744672359
-0.009114552218633921
0
0
0.8141588469604292
0
-0.12185471388041509
0
-0.1416327428900086
0
-0.112363977358978
0
-0.08843807694498552
0
-0.07091815244655318
0
-0.05643890075770954
0
-0.02045186685240287
0
-0.0038903320830089706
0
-0.016211405810431904
0
-0.009180712018603663
0
0.02804179662295748
0
-0.04038665906406381
0
0
-0.06178615378424329
-0.021279508712415587
0
0
-0.017953788089306814
0
0
0
0
-0.1686187505397085
0
-0.1134530628889507
0
0.8067258364772202
0.19206369342364935
-0.08394937372350177
0
0.9670660187304008
0.32229319958863994
-0.09542473681369619
0
0.9942716225658698
0.4209977311025704
-0.08512810942434484
0
-0.07410265713966725
0
0.4427440099115174
0.998480847388004
-0.014083657323603565
0
0.4533184828916051
0.9988833996480154
0.998148450088197
0.37781750120615537
0
-0.028156827768174516
0.9938517841630757
0.21822199902832892
0
-0.05338876274403179
0.968679440526906
-0.01255903414869747
0
0
0.8138944419976438
0
-0.1070446244803276
0
-0.12706715649151554
0
-0.06518798939760023
0
-0.09976911999925682
0
-0.06648178766152595
0
-0.07178119505680504
0
-0.04210161685038382
0
-0.026931859758090163
0
0.019083545442642555
0
-0.033037580020784864
0
0
-0.030856606895601695
-0.008394334526759336
0
0
-0.034792973039976964
-0.006888421081301537
0
0
-0.004996793354596806
0
0
0
0
-0.18065297184163945
0
-0.09678322905403597
0
0.8072979756966435
0.1686682804738817
-0.07053695047982728
0
0.966720327039715
0.2993814477758228
-0.06520473931077751
0
0.9938737805336904
0.3639981718643845
-0.03116288323816718
0
-0.0011473827240637104
0
0.4057738400787756
0.9976134805678091
0
-0.06868963747003985
0.3614168827859387
0.9983900413141046
0.9978487706223121
0.331430602441505
0
-0.07824199963143029
0.993309788320298
0.18700298273678884
0
-0.05801474619674004
0.9674482826333599
0.0050180316417283675
0
0
0.8134238046925867
0
-0.06271763072030863
0
-0.15988603824212244
0
-0.05807894991065712
0
-0.0819336427303698
0
-0.04000625328333098
0
-0.07401000437572193
0
0.031281525609720966
0
-0.03613796771479163
0
0
0.005096965803374167
-0.039409351182206016
0
0
-0.057001547637096854
-0.01900803196741724
0
0
-0.0178851795508469
-0.024755081326770994
0
0
-0.009213797228811186
0
0
0
0
-0.18677150166887124
0
-0.06334286176567326
0
0.8062319943171316
0.152087743564544
-0.04451678743772111
0
0.9625175204604891
0.28477395819823287
0.003176440186684638
0
0.9888282654063995
0.3701652379676971
0.0030265862239183677
0
0
-0.062371738652321464
0.41222402609186015
0.9915313459218419
0
-0.03214483548744514
0.37569351133042694
0.9923991063709222
0.9922040036106984
0.2907018383378322
0
-0.029800694418314243
0.9881642857325973
0.16274275246296585
0
-0.09408519416670941
0.9619551911193548
-0.012099309411645475
0
0
0.8083535062309791
0
-0.05170226216725204
0
-0.11565978667300107
0
-0.044001439709932415
0
-0.08456168197169506
0
0.019008921902597623
0
-0.05502123273637208
0
0
-0.0033416029155811378
-0.0512280956583313
0
0
-0.033790455380189294
-0.034899602914639526
0
0
-0.058776491635387514
-0.03023116785947765
0
0
-0.03673508570827158
-0.01742043417112138
0
0
-0.016137273241197663
0
0
0
0
-0.182223430969897
0
-0.034896377285345115
0
0.7934599649917974
0.1484074808039587
-7.006193043266759E-4
0
0.9328079236275363
0.323450930225919
0.008411339997147186
0
0.9578208779021614
0.4014237352580057
0
0.003911708924039252
0
-0.03687022437501874
0.43491736302834577
0.9616656398747169
0
-0.037279790473240364
0.37695210059561113
0.9612861964393927
0.9607618667901784
0.2892396733638239
0
-0.10335842119790167
0.9560644003717603
0.18149246779466208
0
-0.11522283122319084
0.9307679697624512
-0.013696114633946694
0
0
0.7816298741018386
0
-0.02026307599273726
0
-0.11359804054670301
0
0.047588357254937125
0
-0.10455347696692624
0
0
-0.018604065723469065
-0.10208784065109573
0
0
-0.027575798345820177
-0.03477091122552999
0
0
-0.10160484912542539
-0.03674827682516548
0
0
-0.08883646485833935
-0.012444238655441845
0
0
-0.030039637579866645
-0.009699041723566284
0
0
-0.007142299405759586
0
0
0
0
-0.22302125620538646
0
0.012868051338809992
0
0.6469742196244931
0.11880373749277416
0.002326275003016936
0
0.780836450041387
0.280278026838664
0
-0.022144975190072243
0.7905563328566939
0.3404279728755151
0
-0.04694502863306946
0
-0.045473875246689145
0.3720783928417884
0.7907192571437234
0
-0.033971003115256575
0.3328710858760085
0.790971425374371
0.7899258782991679
0.2761016630703302
0
-0.1158324529389332
0.7859440527184854
0.1830025715027962
0
-0.06968197593304803
0.7643089021413848
-0.03491586548336398
0
0
0.6364742433540498
0
0.01735146298690909
0
-0.15139844812199277
0
0
0.02347135734462469
-0.07282783124206878
0
0
-0.024066454022738663
-0.027655902700173377
0
0
-0.09302895262402838
-0.03023570944021613
0
0
-0.10330631471732414
-0.03530393274398469
0
0
-0.07561216457685128
0.014022106184553058
0
0
-0.02209730804847075
0.026208634007719226
0
0
0.00565493683244395
0
0
0
0
-0.2332576432584921
0
-0.004567592880093912
0
0
0.05267947495067041
0
-0.004407739066206843
0
0.18173623987156418
0
-0.0365486811773219
0
0.24938339471775195
0
-0.0525856150090708
0
0.006853915374134278
0.27626023141559214
0
0
-0.043482578522569974
0.28442049205342035
0
0
0.23803827587780427
0
-0.06894479093474515
0
0.10401196896619468
0
-0.0577149035978309
0
-0.047886292366313726
0
0
0
0
0
0.01505877687474366
-0.15891152100909578
0
0
-0.024018556011358837
-0.06553241988181895
0
0
-0.02076022687211421
-0.034819609177527654
0
0
-0.08474690216269944
0.007032686974416789
0
0
-0.05360872879507728
0.013971206698114408
0
0
-0.0640202445502973
0.008513310359084732
0
0
0.03804379686312234
0.0018780146456942525
0
0
-0.02113851036687264
0
0
0
0
0
0
0.00880040650379696
0
-0.13004357413987988
0
-0.05494018933216413
0
-0.110996204399799
0
-0.0323108005146816
0
-0.039103892364513386
0
-0.024121189391342432
0
0.0042856079597547595
0
0.0030962032656211887
0
-0.027478132549755837
0
0.00100538491021725
0
-0.02272852778990354
0
-0.08259846134927341
0
-0.04021683958275101
0
-0.05626521019957168
0
0
0
0
-0.0028766186621508962
0
0
-0.0018201795704830299
0
-0.09487014950514557
0
-0.0601217317283347
0
-0.03491638913966611
0
-0.0385586693440989
0
-0.06387429406271254
0
-0.04952817805707064
0
-0.029386221069542365
0
0.011665588097292838
0
0.0031384724828103917
0
0.004397626090307781
0
0.007044698449416908
0
0
0
0
0
0.020067844404098797
0
-0.10061270038419429
0
-0.04091024399969511
0
-0.10925930128814708
0
-0.038658894643758386
0
-0.09687195850445195
0
-0.023396425180536525
0
-0.009457400348905435
0
-0.08712925752511752
0
-0.03534686514533326
0
-0.10684844737995235
0
-0.08505855679255923
0
-0.01777458097281598
0
0
0
0
-0.012817051314852723
0
0
-0.030061221375353237
0
-0.058166700561513345
0
-0.04749563850334538
0
-0.07628927945130039
0
-0.0682130714836912
0
-0.11073395670436885
0
-0.03348167575134601
0
-0.08331183972491436
0
0.021348935747378058
0
-0.012332290298657978
0
0
0
0
0
-0.008023617046987312
0
-0.07361086681081953
0
-0.0014917139875229993
0
-0.08196177217321911
0
-0.00875356804482568
0
-0.08926954065385174
0
-0.00798984617767448
0
-0.04240958976556996
0
-0.08862794311799947
0
-0.014398621564238987
0
-0.0274245310248684
0
0
0
0
-0.012419680877798768
0
0
-0.029960884344246593
0
-0.04883827604528066
0
-0.0318834357414762
0
-0.07244849109440077
0
-0.05240374514680815
0
-0.08729137555034489
0
-0.028460850079293557
0
-0.049832299762911064
0
0
0
0
0
-0.006420795860703158
0
-0.06704225996135565
0
-0.0019066555834636658
0
-0.062124973230746956
0
0.027295351738402255
0
-0.08210613904986382
0
-0.00445985298607007
0
-0.029053556163103126
0
-0.05516650606280333
0
0
0
0
-0.02415408250387314
0
0
-0.026051529130694407
0
-0.0628512733142575
0
-0.04168628602010683
0
-0.11639169494657185
0
-0.04067272882948327
0
-0.09939667170150022
0
0
0
0
0
0.005173267257938218
0
-0.07876925804576486
0
-0.01796305788339626
0
-0.04630829615294609
0
0.004478164580706766
0
0.0016452989506382633
0
0.011475462026948545
0
0
0
0
-0.002975438026017236
0
0
-0.02533580180132179
0
-0.0857724445917696
0
-0.05053532267444916
0
-0.08365768228111242
0
0
0
0
0
0.019850748138225797
0
-0.04406838778597986
0
-0.005875856638028001
0
-0.027771885236778638
0
-0.004268220317777945
0
0
0
0
-0.024799421107272113
0
0
-0.0650917460325935
0
-0.05816060196984884
0
0
0
0
0
-0.00749641593721456
0
-0.05011775496483415
0
-0.034000627050597705
0
0
0
0
-0.051618496552959935
0
0
0
0
0
0
-0.011813289473453557
0
0
0
0
0
0
0
0
0
0
0
-0.11643193553111521
-0.0587205879752444
-0.014802939581664789
0.0280705382260192
-0.00401986742399829
-0.0377716494807655
-0.07566730546789252
-0.1064998859184647
-0.12131329552330856
-0.08691667413439813
-0.05958763487017984
-0.05179875920912727
-0.02732252381344266
-0.10776612649426393
-0.11426030297166416
-0.03485708300472786
-0.12384429096231664
0.0683987735381754
-0.14064614622293184
0.08004045915309675
-0.1564250589219904
-0.13815818416047612
0.07864182101861684
-0.0945789960208901
0.03922570253812519
-0.0617485098788746
-0.1137039815830508
-0.1368016491761255
-0.17161921555369186
-0.0843345209593061
-0.10006339010546055
-0.0760810196941377
-0.08447507734453084
-0.07306571591093564
-0.040808284531789
-0.07209064836940587
-0.044163094539322455
-0.08704762160305111
-0.10929621031563225
-0.15671439128595577
0.023706268589695333
-0.059572343153249496
-0.17072676585749538
0.06497098933762986
-0.1047883087783344
-0.17784464627471988
0.05602632829223115
-0.13770273211496956
-0.1730857388384295
-0.12857670786742495
-0.1723186905739852
0.07213805701285557
-0.15182411097891754
0.03173707505577882
-0.039578262884611165
-0.169143082266995
-0.10484072170044273
-0.14854179731987924
-0.11168171646413065
-0.1398638594039268
-0.11799507801627439
-0.09682993762683817
-0.12372398107870185
-0.08240442489784665
-0.04855779963891415
-0.09365361811554136
-0.05398869540269077
-0.051341198303435996
-0.05503782360457279
-0.06849154724910382
-0.1023016596483703
-0.12229424017503594
-0.18059665311415699
-0.13858638882148902
-0.04300386982829762
-0.12685696676196112
-0.21753177307387375
-0.17525773173187564
-0.03108830705942589
-0.14389294623008056
-0.24709210588896754
-0.1564001471506314
3.2365138668420673E-4
-0.14349930239772238
-0.2049612355327278
-0.12335223213670111
-0.11847324684895934
-0.1685447660268022
0.011266579626142718
-0.10263237032667843
-0.05272121357871889
-0.10177529668891057
-0.10078617855516382
-0.16727166719747266
-0.18644814024652503
-0.15363258446902697
-0.10922328322758586
-0.18752569974757083
-0.15698903755233837
-0.1506948962971961
-0.06406771770359156
-0.1324252021769947
-0.1429502131751218
-0.10863500840522365
-0.08094581475647299
-0.08911560915570906
-0.12069974440881027
-0.12119992902429687
-0.03860602352847772
-0.08640605963599036
-0.10842796546516405
-0.17083165011551985
-0.2083130857556054
-0.2248991590086448
-0.10267929890784798
-0.025054158529646663
-0.16448501214119438
-0.21966309141786236
-0.20640477814780941
-0.08289594168037738
0.005996480106712888
-0.16512551267458375
-0.2106607720773065
-0.18042835256361167
-0.04139625939366051
0.014353284667209346
-0.18161653608175132
-0.17783689286086635
-0.1386574496111348
-0.08320591030336265
-0.17732457858533165
-0.00353893144410825
-0.1658252035743163
-0.041182951137371936
-0.14432393573844327
-0.10008674088420683
-0.1872775308234541
-0.20032949831731453
-0.20395042123945642
-0.13101428794688927
-0.06360926350509712
-0.10240783093183344
-0.18877839541306632
-0.18946179969224805
-0.09967776321510143
-0.08468310055404536
-0.17338607464675967
-0.15494038348644515
-0.11393083337836012
-0.15767528933769623
-0.12380030285482312
-0.0705979394263374
-0.1119363995271646
-0.0750919166028814
-0.04926696629533577
-0.09346257944927161
-0.15172063130134814
-0.2296669358384034
-0.21660147366274443
-0.16992571736460735
-0.0881190509377847
-0.039740567817853206
-0.12767186520427062
-0.24916266709586668
-0.18695597241853842
-0.15266730072659962
-0.06605222962575176
0.08070148967764174
-0.13301594994472807
-0.2562671906409453
-0.20261337583896977
-0.1067292023652953
0.05774459712864164
-0.18608250561024323
-0.2132664483330081
-0.12840882891110464
-0.12071516618716134
-0.20135381594596924
0.039321746072607626
-0.18925247356360186
-0.021733909868455567
-0.09201591174268592
-0.05340082027220339
-0.11172611625225627
-0.21601287979672065
-0.18632084814008879
-0.13896279221829874
-0.13128220609522098
-0.07212137387687513
-0.18950389843198293
-0.22317835031722846
-0.16725561032910538
-0.1323521036297796
-0.1541259566187757
-0.16385822365076577
-0.11446317148746828
-0.061047009170819046
-0.07574219943459702
-0.09230655299248271
-0.08538032233296583
-0.08437402747865158
-0.05108130836414979
-0.04463047050063909
-0.19962073487770307
-0.10587501146838903
-0.18043566659826518
-0.20552590491358946
-0.2118730668921653
-0.0943891007123656
-0.009952913567492566
-0.11553130433581722
-0.07147447618785009
-0.21195579915312657
-0.21764862518471728
-0.1589274622090668
-0.08279828500891312
-0.025811715889131333
-0.08194678930345377
-0.20818911915316282
-0.17303747932272226
-0.12751867951530693
0.02703557752981199
-0.13926265535770885
-0.1796856020709915
-0.08958154085482704
-0.13086529189138738
-0.15633187492444514
0.0019358031678925463
-0.1527116924652555
-0.047416484740965915
-0.10571403842291821
-0.07991272478488248
-0.16703802238406681
-0.21586678031442685
-0.1898660570443439
-0.11447809493036527
-0.14879538416396712
-0.11652117690972029
-0.18575522882435191
-0.1910899255255093
-0.07628815493123066
-0.0518511639199011
-0.08424637818535687
-0.1355201152964338
-0.10583140586614444
-0.060194129551867905
-0.11154806046375475
-0.11160360993870248
-0.0807414506656155
-0.05183223266278656
-0.014934402062262818
0.03936518625350113
-0.16848821900439767
-0.11910352050609994
-0.21241406217234327
-0.17612477995188372
-0.11761071106219904
-0.07621141663613568
-0.12724656381277646
-0.14292417832569357
-0.1859674476081703
-0.10548238338430033
-0.07837737746442876
-0.07864517373983972
-0.14684777725640655
-0.11937131749722585
-0.12052371090204429
-0.10938144460000682
-0.14606459269601
-0.07568660015646224
-0.12453387103089718
-0.13482928844001837
-0.15961322331870254
-0.08484065184359026
-0.18415016636486034
-0.2117788823457355
-0.15946531252532303
-0.0828419613706781
-0.08200541344077955
-0.14803963407034978
-0.11217989477894365
-0.10041546944136719
-0.08060087741046651
-0.10949030214510681
-0.08199893317875051
-0.08275528717358877
-0.07400544394883712
-0.03604255212032836
-0.12254980689506463
-0.15706542669005075
-0.17940038686527512
-0.14568257552486044
-0.10117746010396604
-0.09668498622023852
-0.12699610159246036
-0.1311495632970298
-0.0671159590651882
-0.1167757265893243
-0.09757342736398061
-0.05012310613437742
-0.09394587192887922
-0.040852842589293586
-0.10364402802543697
-0.1057441480557957
-0.16845431188764384
-0.13937722651670945
-0.07139065713712968
-0.0706383624453233
-0.16017116295591594
-0.12409666808292207
-0.08135510578332955
-0.12498451133910111
-0.09865015330680339
-0.10933528642502828
-0.1287729253282811
-0.11868863903317402
-0.011173825467681094
-0.08269776237800469
-0.09138339670058719
-0.05543277752597999
-0.13508836203941854
-0.05997508299713322
-0.09616828220563119
-0.08722858857755657
-0.15805904947560953
-0.12325483844473177
-0.09026269693083205
-0.12967862717418296
-0.12337244527743818
-0.060469083078326845
-0.13178999546830314
-0.021562852070834512
-0.05984459985283926
-0.04364787886518204
-0.02641531446096708
-0.07582135044523769
-0.1432756964812207
-0.06623223557316728
-0.06252778690751605
-0.05352490172452339
-0.025822156200548726
-0.07718191585086596
-0.06349925080006492
</DataArray>
<DataArray type="Float64" Name="v" Format="ascii">
0
0
0
0
0
-6.161933846827205E-5
0
0
-0.0022804036319080652
0
0
-0.00220747910653295
0
0
-0.00254593188697136
0
0
-0.0022048251571287858
0
0
-0.0020431402969737123
0
0
-0.0023762056142712365
0
0
-0.003440203786472771
0
0
-0.006169501754785654
0
0
0
0
0
0
0
0
0
0
0
0
0
0
0
0
0
0
0
0
0
0
0
0
0
0
0
0
0
0
0
0.024515954897721418
0
0
-0.003092745452401458
0.017261000451269274
0
-0.0017238629636228966
-0.027668024736099264
0
-0.0012361641310117118
-0.009907154961276228
0
0.009053118144437015
0
-4.063697455311336E-4
0.01343340433143963
0
-8.368363382976769E-4
-9.054650377255425E-4
-0.02244235778891979
0
-9.5540878900008E-4
-0.03354489584678811
0
-0.0015467555144529283
-0.05944685941833793
0
0
-0.0013527134070577696
0
3.8148481798066955E-4
0
0
0.006754105423026651
0
0
-0.0026514007195748836
0
0
0.027059190243994457
0
0
0.006893179120520141
0
0
-0.013547162207969093
0
0
0.011443434843956636
0
0
-0.009079638906151299
0
0
0
0
0
0.029443660256597642
0
-0.02187874717638766
0
-0.0033584430550244993
-0.01932143414321351
-0.014925387773181307
0
-0.001009243469713341
-0.033049452898256886
-0.010792836185881725
0
-6.118120943173739E-4
-0.011570229552949835
9.832047450164078E-4
0
0.014343427816193908
0
0.004939316939603467
-1.9033561596744252E-4
0.016806631025183424
0
-0.03237915802603
-1.6246573982429938E-4
2.928434241623967E-4
-0.01611140036517446
-0.021641642169729355
0
-1.6427602983313608E-4
0.002178530308198435
-0.0448696830010571
0
-0.0014818193876568117
-0.03145051860944989
0
0
-1.592334428662556E-4
0
-0.02060269797281834
0
0.031550889688125326
0
1.672884000683139E-4
0
-0.0047797173244166205
0
0.013521020785995742
0
0.013691269241146165
0
-0.01364417851276712
0
0.01666250913861544
0
-0.02212939600721175
0
0.027046160546379396
0
0.014697955301132543
0
0.014770539528930607
0
0.007054723941413109
0
0.019329686585712092
0
0
0.017213782800192274
0
0
0
0
-0.024910302332327872
0
-0.017438258545117418
0
-0.0031814856974068406
-0.03480986340416129
0.003326947875054552
0
-0.0016144629375893437
-0.016353024845478275
-0.0012734912892121734
0
-3.0896785517698993E-4
-0.03929277966281261
0.016341501741286898
0
2.809949824284263E-4
0
-0.014298379377674768
-3.314568892019229E-4
0.0044914632082532525
0
-0.049975121480043655
-1.806115463953446E-4
-1.1060659776142608E-4
-0.01308938578711471
0.017746529182960893
0
-3.0319613958336525E-4
0.010444508718523841
0
-0.050339067775881284
-7.295462446159363E-4
-0.0013476652023772932
0
0
3.6541136898431316E-4
0
-0.00720325059461522
0
-0.0051815497711183425
0
0.016121058582979856
0
0.013658314413326282
0
0.015224797827636244
0
0.015005718958766122
0
0.010207525275238239
0
0.013491395594235128
0
4.0020762416071066E-4
0
-0.014727420305935596
0
0.001487301027973728
0
-0.005664145436144255
0
0
0.01114106187200195
0.051130191490235434
0
0
0.016877223590369122
0
0
0
0
-0.02801805360055599
0
0.018521503178979718
0
-0.0033823555713405544
-0.020537495573940957
-0.01763861650962661
0
-0.001170280682660959
0.009119372672721665
-0.010304041082121096
0
-1.718478912452323E-4
-0.014477029320413485
-0.0011876212324494033
0
-0.009028097511000083
0
-0.031216494346119356
-3.965606612462103E-4
-0.0048739385378161896
0
-0.008698673562826194
-6.14398269889203E-5
-5.781397657319078E-4
-0.0057125736847883244
0
-0.020587301378767627
-5.970530632189017E-4
-0.023829311775343243
0
-0.04408241445212932
-9.534087012589841E-4
-0.0053771065860047105
0
0
3.4875920616987607E-4
0
0.04925856652921105
0
0.010689027405460462
0
0.014401615408780452
0
0.011146045106425091
0
-0.0011629638841352226
0
0.013566687773124288
0
-0.014492680559263399
0
-0.0019752814971747083
0
-0.02138972862131948
0
-0.02476845866098139
0
0
-0.007471762619325743
-0.004177402878695531
0
0
0.030042697296730248
0.08702998959702019
0
0
0.00878279989096359
0
0
0
0
-0.01902481954613093
0
0.005929104676317658
0
-0.0037876066842186594
0.023267912587501934
0.038285730524536314
0
-0.0010824901660384484
0.001393468779011888
-0.019005198504444223
0
-1.4153642172087718E-4
-0.019901579869134392
0.0018977852231380325
0
-0.023423162474025535
0
-0.03667351106493633
1.7384846916238095E-4
0
-0.05069642393787887
0.011925065559034949
-7.960287246699317E-5
-1.9329091261251557E-4
0.02452699815315197
0
-0.06840239395990456
-3.4848806074750364E-4
-0.027813190186353715
0
-0.059043059127765064
-9.425859146458536E-4
-0.03367422745212941
0
0
-2.1732698289687934E-4
0
0.01883741908144704
0
0.005374145778150748
0
0.01803368722711379
0
-0.040192555720745975
0
0.006687788318170692
0
-0.02833389598076522
0
0.009667648320139034
0
0.01280369968633168
0
0
-0.04056138436740186
-0.012445838652991198
0
0
0.01489269668004539
-0.010615124163373178
0
0
0.04449161150949568
0.055996175483463174
0
0
0.0025257238680494055
0
0
0
0
-0.03057284341391167
0
0.02328615529070237
0
-0.0036490519921919674
0.008524904311305868
-0.018797997878907954
0
-0.0015142770243757066
-0.02355385679004234
-0.015574241644759382
0
-5.716794986150558E-4
0.0037864452687727582
-0.022851456671315173
0
0
-0.037032442333485675
-0.01187347824352499
-7.086003305454167E-4
0
-0.04587768403499018
0.03235108965244227
-2.1425467458271777E-4
-1.7839587085665045E-5
-0.008211121289798977
0
-0.06787778571143217
-5.8289263734398284E-5
-0.01183022088312944
0
-0.0641063534838709
-0.0010952391152590669
0.030292721149997825
0
0
-1.1367133657658005E-4
0
-0.0186795490572934
0
-0.007389296117793486
0
8.887811680810693E-4
0
-0.022467880221417828
0
0.0011975238220196633
0
-0.002956396887751914
0
0
-0.033857890004229445
-0.01889265113965027
0
0
-0.007088183681310292
-0.04865134543448277
0
0
0.024809897819765378
-0.026529854546396604
0
0
0.020862928520743344
0.04291219362737206
0
0
0.013316070046359192
0
0
0
0
-0.04646668272540359
0
0.0016280427085870748
0
-0.004776728714984343
-0.004358508393838238
-0.020375722581722152
0
-0.0019740147456205346
-0.01031522970089501
-0.01767854206867459
0
-9.007942635402918E-4
-0.004473130559506877
0
-0.04336726517352005
0
-0.003798403188760121
-0.02630123837460956
-9.832169176189258E-4
0
-0.0725547692502409
0.01399113685380071
-7.593888426814399E-4
-4.015193531515156E-4
0.028217916789629666
0
-0.06684383377185614
-7.164255074149E-4
0.008676639021357792
0
-0.041484997717909276
-0.0014668317684616474
0.037177381066202726
0
0
3.387475036939215E-4
0
-0.007506048203835577
0
-0.0134476592852998
0
0.01648428888138463
0
-0.03549496401773881
0
0
0.007183532505297315
-0.04223365315462599
0
0
-0.05034905409974608
-0.026128626877915492
0
0
-0.01878987214900314
-0.02497124990760803
0
0
0.015004399416458683
-0.02955836494674312
0
0
0.029160431802709216
0.010038647382324265
0
0
0.01943557949279139
0
0
0
0
-0.0792769769550805
0
-0.00496089440815646
0
-0.007910162269523114
-0.027297557645632617
0.0010793949614629507
0
-0.00387489789075156
-0.017226682124943566
0
-0.0046080347301195035
-0.0025484146657332096
-0.025651329274435516
0
-0.016500319138309197
0
0.019574018897514086
-0.031467029452503494
-0.002252368056347181
0
-0.02287829484692848
-0.049209054581743544
-0.0024005875667395967
-0.002609061129179971
0.019360808774839658
0
-0.03534622827471364
-0.002813993990676837
0.06646898736195218
0
0.019072568594527394
-0.002576277105972152
0.051189451426331335
0
0
0.0016915047281246011
0
0.0067479082032964035
0
-0.015978783601910834
0
0
0.05587773386749426
-0.03150795027212197
0
0
-0.031971520771665575
-0.053649991530042136
0
0
-0.004239350277697716
-8.056974121415559E-4
0
0
-0.016542996578495842
-0.06129145043461092
0
0
0.01964847183967995
-0.021740224013749546
0
0
0.01886248350000525
-0.003472534854883054
0
0
0.004294915840824286
0
0
0
0
-0.07856811159911413
0
-0.02878170029565649
0
0
-0.0030295240752453655
0
-0.009689511066112051
0
-0.056523592069817476
0
-0.0017794854713708726
0
-0.014452839049072247
0
-0.014566910010516082
0
0.01803524025032793
-0.03392023730500956
0
0
0.01512005462253174
-0.020668009165168033
0
0
0.01683151245108851
0
0.009214776413065643
0
0.02423122558175028
0
0.050144002452692536
0
0.034785079294224336
0
0
0
0
0
0.005767148139951978
-0.053383286438983574
0
0
0.04920871029776274
-0.022553718455324043
0
0
0.014369074146183434
-0.013023285101477926
0
0
0.02404452286110414
0.0016464026810444905
0
0
-0.004849639588173304
-0.024120798283140777
0
0
0.02250058493764268
-0.016502864341194804
0
0
0.03123871795165915
-0.010749366642438224
0
0
0.014965243785961998
0
0
0
0
0
0
-0.03428809487572037
0
-0.00713368669032883
0
0.037698802772133194
0
3.0689586222021835E-4
0
0.038541906759433926
0
0.015052690082546507
0
0.02689435122453003
0
-0.016748257251611182
0
-0.022623956738031806
0
0.0028331538756914253
0
-0.0032946203949344114
0
-0.0012899546006786523
0
0.030854458680400366
0
0.01517488333302886
0
0.03655355281080744
0
0
0
0
-0.019823790839332268
0
0
0.007686219251167434
0
0.006889037375416408
0
0.014111817132778154
0
-0.012430457430417019
0
0.03052381040726393
0
0.002276832392002161
0
0.053767927213354445
0
-0.02955864877017721
0
0.011652751429958037
0
-0.008751996748513865
0
0.015531729192205362
0
0.022620965972982018
0
0
0
0
0
-0.040524056830505535
0
-0.0012740197352175487
0
0.0681252423561134
0
0.02052119918957469
0
0.02484459113288966
0
-0.0076548218142924755
0
0.01460628365873125
0
-0.01464386611800215
0
0.04311021226887624
0
0.028995939554750116
0
0.011922860944031976
0
0.03724254143979821
0
0.02783438139194853
0
0
0
0
-0.013330289324078669
0
0
-0.013615385393796621
0
0.017549243231111625
0
-0.039163653599793485
0
-0.017345189208421635
0
0.013932321019838418
0
-0.023277118195056304
0
0.027670225743085194
0
0.005367223634070079
0
0.015925134022936865
0
0.012569331263219135
0
0
0
0
0
-0.009995600311092758
0
5.15004347209365E-4
0
0.05080126228420289
0
0.01765800787166805
0
0.03809634678576424
0
0.013330820916708725
0
5.779193415529695E-4
0
-0.01594089939576021
0
-0.0013806026336434308
0
0.00963350708326518
0
0.005165954891186413
0
0
0
0
-0.04639502858987376
0
0
-0.03981301237316926
0
0.005136285966129652
0
-0.03552107599245081
0
0.02352260314867273
0
-0.011143613897584885
0
-0.005116210887450039
0
0.009977856017231309
0
-0.008414696210759846
0
0
0
0
0
-0.0052806180231655805
0
-0.0019315566238390948
0
0.03445897323473809
0
-0.02013460174160292
0
0.019752284291344305
0
-0.01856644483040502
0
-0.014644557031965487
0
0.02156274226481346
0
-7.612631562203598E-4
0
0
0
0
-0.06727038736150054
0
0
-0.04177001639969566
0
0.021827941981990073
0
-0.0037260030499137726
0
0.0014967688890441524
0
-0.023123569068873365
0
-0.0012240176416371323
0
0
0
0
0
-0.003604459431037678
0
0.014910535621357352
0
0.005590598865377928
0
-0.015137489350706303
0
-0.030284281086123476
0
-1.0487618662413581E-4
0
-0.004138079416050942
0
0
0
0
-0.033387121210179276
0
0
-0.02097968320885169
0
0.004332270663885112
0
0.004868543101139714
0
-0.009488756548860939
0
0
0
0
0
-0.02891875614559757
0
0.012160279644778558
0
0.014929514885935377
0
-0.007033653990695302
0
-0.030981743061400963
0
0
0
0
-0.011812350959225169
0
0
0.012141731010495212
0
-0.025264533046759133
0
0
0
0
0
-0.03616560022987634
0
0.0045872819544114955
0
-0.03404152929792204
0
0
0
0
0.018773202254917586
0
0
0
0
0
0
0.0024117869116372435
0
0
0
0
0
0
0
0
0
0
0
-0.03226208520692694
-0.04849775690916756
-0.035526164209902185
-0.0075961486524533115
0.016934448434946663
0.038787294469856966
-0.04338513760873533
-0.028541683464470644
-0.009823996655471784
-0.015767642990823522
-0.008789504600354832
-0.01705768607070211
0.027450497833077802
-0.020507310690190975
-0.014953495797503552
-0.028738299123376786
-0.006322828193077308
-0.013515447441614368
0.01263314074684452
0.01396434414775046
0.025267463824726544
0.021842400392311504
0.0030652157872422064
0.005155415426859739
0.006450738210600438
-0.03199851351376478
-0.045091191048459496
-0.041341514899934956
0.024121185176543273
-0.019269779092498492
0.04458650652980533
-0.006716538933661088
0.020523062715498804
-0.013427284099812071
0.018819927670481112
0.038610553119630776
0.06363070647021372
0.006677581316170459