<?xml version="1.0" encoding="UTF-8"?>
<VTKFile type="UnstructuredGrid" version="0.1" byte_order="LittleEndian">
<UnstructuredGrid>
<Piece NumberOfPoints="1331" NumberOfCells="6000">
<PointData>
<DataArray type="Float64" Name="u" Format="ascii">
0
0
0
0
0
0.6296613140325437
0
0
0.7629204691535375
0
0
0.7862593917293795
0
0
0.7900090311695288
0
0
0.7906588922540393
0
0
0.7900517430048347
0
0
0.7898299806825809
0
0
0.7803530630961123
0
0
0.6549931898111864
0
0
0
0
0
0
0
0
0
0
0
0
0
0
0
0
0
0
0
0
0
0
0
0
0
0
0
0
0
0
0
-0.23427782765698515
0
0
0.7730868539772676
0.13764554988607844
0
0.9297351859075692
0.26091392707618954
0
0.9562809676687215
0.3289731430570591
0
0.33491932031882415
0
0.9606021832650294
0.284016743497457
0
0.9611034487586901
0.961585567941258
0.23746522181298632
0
0.958087813015568
0.09882678804954413
0
0.9341393063178848
-0.030206724871212665
0
0
0.8006638249875769
0
-0.11316946223490522
0
0
-0.0502192834195847
0
0
-0.022649725350797664
0
0
-0.020723409877854374
0
0
-0.020127290195827766
0
0
-6.278215619014081E-4
0
0
0.022562205437985757
0
0
0.02030971958718281
0
0
0
0
0
-0.17177725090227905
0
-0.08919286802718963
0
0.8006831888203046
0.17958104688314191
0.030554230174008563
0
0.9608718405651383
0.3237152495826869
0.024826495304395083
0
0.9874942329403075
0.4089224260412927
0.04541728339633147
0
0.04012897564313244
0
0.43042922449529014
0.9926197798158759
-0.04413264698700273
0
0.37229296503879517
0.9926365963979026
0.9923144096021961
0.29439285647777497
-0.08840579423368088
0
0.9881240283140252
0.16969739763178093
-0.06619738532955727
0
0.9637745379635909
-0.04291290166766937
0
0
0.8134776393275261
0
-0.07055622443713096
0
-0.09393098172484708
0
-0.04813111360012237
0
-0.05968004400622753
0
-0.0335033748254503
0
-0.03344684995761194
0
-0.014034108102532914
0
-0.03428514799790173
0
-0.02603790730132534
0
-0.07783861759322643
0
0.002027705474439902
0
-0.016218779668330685
0
-0.002355530239295883
0
0.026470903141304302
0
0
9.591414022480791E-4
0
0
0
0
-0.15390658403626387
0
-0.06113482334988557
0
0.8056851703192672
0.22337434502294892
-0.07163178011812527
0
0.9656453342787509
0.3792652164704951
-0.11185155229350856
0
0.9934487252045853
0.41972150433199945
-0.11665219113731877
0
-0.11049894928349208
0
0.43625854980726325
0.9981179414084967
-0.0847086366765814
0
0.4215866978818521
0.9982324521411
0.9979024817471965
0.3517043817451749
-0.06332185282616891
0
0.9933778065021398
0.2359172030424919
0
-0.07940922011398534
0.9683850101211996
0.009671190087506583
0
0
0.8147667766154462
0
-0.05534843918117709
0
-0.09213865271280626
0
-0.06364821613423711
0
-0.06482876569073028
0
-0.0505792062871727
0
-0.026964650082092798
0
-0.06334347046879542
0
-0.011356132210074891
0
-0.030478789531704246
0
-0.02779196422626273
0
-0.007427672640948644
0
-0.02506258628454182
0
0
0.022222268533511006
0.015255104862485028
0
0
-0.011764504800781679
0
0
0
0
-0.1712313160483143
0
-0.0954704309184193
0
0.806987399666904
0.21971301144415714
-0.12529174766767692
0
0.9672588326184416
0.3668522260458553
-0.1403437633350282
0
0.9943472802073784
0.42955482971666464
-0.09384734897939896
0
-0.03834526723446308
0
0.46481612033816694
0.9987121351363419
-0.004778787906388791
0
0.4575043782278278
0.9995508612961702
0.9986544575977961
0.3475995019076024
0
-0.07854007693554377
0.994095201677501
0.20052093049465528
0
-0.03990799514789703
0.9679571658491194
0.00626138732938919
0
0
0.8141372836072786
0
-0.11799498481072536
0
-0.1446974632605006
0
-0.10288625901596878
0
-0.09020435040908731
0
-0.057415567890393975
0
-0.0831097997995129
0
-0.011024564972341973
0
-0.04267241739498085
0
0.019694560756021048
0
-0.012997168694441895
0
0
0.008931655027291908
-0.04919127766001526
0
0
0.011574936112902466
-0.029814638014072664
0
0
-0.02580781242160242
0
0
0
0
-0.17511350548704427
0
-0.09842286051696074
0
0.8062132378708408
0.21920044823298038
-0.11762590892696766
0
0.9663323479421605
0.3683806065259468
-0.10664244115553244
0
0.9937199081743492
0.43208651666125886
-0.07086177773161924
0
-0.03173939762698955
0
0.46744517606252484
0.998146668182116
0
-0.03316103997463992
0.4650516467677986
0.9981767016185382
0.9974545598396726
0.36730805898033486
0
-0.07278395292523614
0.9935064788180749
0.1956833757092129
0
-0.06178141917735085
0.9675084004845229
0.006932672514910559
0
0
0.8130685274232688
0
-0.1366974474015237
0
-0.15698509400694316
0
-0.08175592244734099
0
-0.11844381940949898
0
-0.02069954791440005
0
-0.09862639066992178
0
-0.0031618773032072076
0
-0.04847754906699195
0
0
-0.03527178213225483
-0.030943821799432548
0
0
-0.02126981743039287
-0.059222976553223956
0
0
-0.036498897181481436
-0.03289591112410351
0
0
0.0020618132658409565
0
0
0
0
-0.13843188840681495
0
-0.10613314936562278
0
0.8061270379174789
0.2265809675595263
-0.0668127598798031
0
0.9625781760389279
0.3388457859857559
-0.06788789947352482
0
0.9885481684960459
0.4264446328645455
-0.03415506163551105
0
0
-0.043339196791083896
0.46151550945828906
0.9924104322712707
0
-0.06863440507480097
0.44184268802655
0.9927715359771477
0.9917951809258736
0.3763911354776521
0
-0.0355001425129926
0.988086948942175
0.21558298170855208
0
-0.07923841774714856
0.9620396028582866
0.007661116822516849
0
0
0.8086003168274479
0
-0.10387142959216128
0
-0.1161127595624079
0
-0.07503546194405925
0
-0.057982729189639017
0
-0.03245188681243561
0
-0.052794167464403456
0
0
-0.06504242571848186
0.0010130407029793158
0
0
-0.07197988786882308
-0.02974583423364407
0
0
-0.08781721263528003
-0.01744970156572669
0
0
-0.01526999539994778
-0.020468822733509983
0
0
0.02434519486543195
0
0
0
0
-0.17501389925775787
0
-0.07393912687997445
0
0.7935063244645678
0.19848071605094822
-0.038833696198110605
0
0.9324292289732844
0.3427608926410073
-0.039289832464625335
0
0.95802625243582
0.4259339717449782
0
-0.050915715908638116
0
-0.06932533816562471
0.43354531515394085
0.9609227208397401
0
-0.0686270237418145
0.40998708915408605
0.961162130347736
0.9609134869545369
0.2873697433212008
0
-0.06327425922951108
0.9562857293972035
0.16325589779174277
0
-0.07024071334573863
0.9308865619321173
-0.022264989016461914
0
0
0.7814337288777287
0
-0.06418583094866352
0
-0.12043611869145743
0
-0.031693555069343494
0
-0.12530015967128308
0
0
-0.04750534527218611
-0.04909143114704193
0
0
-0.11796209421093244
-0.006732796522614993
0
0
-0.10143468889150203
-0.03499029965301769
0
0
-0.08748231691575903
-0.010187675563548389
0
0
0.029326269948334757
-0.013929474273504267
0
0
-0.01544070222907292
0
0
0
0
-0.19660166582423924
0
-0.04865136977287298
0
0.6469873263073521
0.15292838666278333
-1.5735529114297147E-4
0
0.7806863545603769
0.3166225835481702
0
0.001925654211769957
0.790260134323934
0.37958724252671944
0
-0.04728934989901248
0
-0.03180132421367476
0.4067531548316101
0.7907291122487549
0
-0.04552522695195207
0.3656538557978559
0.7901776623556059
0.789917517349587
0.29916156390047033
0
-0.03811967724383727
0.7865292892855041
0.14033366161570318
0
-0.08215567255068507
0.7649690694062451
-0.014640473885572118
0
0
0.6363483839890841
0
-0.023971431937660315
0
-0.15908865886380366
0
0
-0.03089074954575385
-0.056349092996719564
0
0
-0.11614717370906828
-0.053785471824795116
0
0
-0.08710082726792744
-0.055137173919482224
0
0
-0.07685080507891849
-0.05627767164725548
0
0
0.004701671495438386
0.004543838441853591
0
0
-0.016910217476198256
-0.007780814428263318
0
0
-0.01922111981135649
0
0
0
0
-0.2199820195760754
0
-0.026665378994199216
0
0
0.09675841965187365
0
-0.005314432982525847
0
0.1906122033752552
0
0.017841374735940052
0
0.2566270856341593
0
-0.02479047349613268
0
-0.023119839688414787
0.24209005297780797
0
0
-0.05041998560465003
0.23694449260616948
0
0
0.20514674754429943
0
-0.06086618004843645
0
0.10310872493201508
0
-0.10023059536858009
0
-0.06255674564954551
0
0
0
0
0
-0.014589891154980566
-0.10363881325133391
0
0
-0.04405040422089543
-0.06332074228008973
0
0
-0.07679314512574022
-0.03737017611363245
0
0
-0.09799960900801173
-0.036506116135692185
0
0
-0.04294582756774948
-0.03485000530418036
0
0
-0.004422398070899059
-0.03531814639452354
0
0
-0.024782698994475865
-0.010376065657530716
0
0
0.002888504113328388
0
0
0
0
0
0
-0.0033762001171238117
0
-0.09378454868958076
0
-0.00475107750465409
0
-0.04315107426160892
0
-0.0073567307654610545
0
-0.01427598297384545
0
0.009221307666555607
0
-0.02681717921916037
0
0.0108344911525581
0
-0.05364581070153616
0
-0.004751309937603073
0
-0.06395828533812088
0
-0.08294048503418684
0
-0.10944430935980178
0
-0.07546764149500486
0
0
0
0
-0.006166133353958019
0
0
-0.07324966664870819
0
-0.09177101078837208
0
-0.10016025298528301
0
-0.03371323687471838
0
-0.06593511257611896
0
-0.05723128815813049
0
-0.03845897444279379
0
-0.08322370062548262
0
-0.023692895039640602
0
-0.08126404752661803
0
0.009486002196353295
0
0.002392670558935862
0
0
0
0
0
-0.0015812449939906605
0
-0.1214567742381109
0
-0.02819223314713507
0
-0.10471135828857309
0
-0.044131272915188036
0
-0.10071533150810329
0
-0.04921625703112765
0
-0.05172069244356203
0
-0.10414966552399668
0
-0.049165533573692556
0
-0.11274295066278399
0
-0.10087791991754004
0
-0.040908388928295486
0
0
0
0
-0.041778695319425824
0
0
-0.09222464516985786
0
-0.08437817117991092
0
-0.06497773897095233
0
-0.10444017887916689
0
-0.041112490828311005
0
-0.10175411468680372
0
0.014290578969412321
0
-0.06544050573548897
0
-0.012937819278054761
0
0.009678650825896836
0
0
0
0
0
-0.011074851670945905
0
-0.08816989936191982
0
-0.023245286095101
0
-0.10554835336867706
0
-0.01101085408611182
0
-0.09886921664828424
0
-0.008731114528377012
0
4.8302989743028617E-4
0
-0.07811271866072868
0
-0.024088760604849314
0
-0.1045314137346285
0
0
0
0
-0.04835504897123922
0
0
-0.060775908805365576
0
-0.10440153129856845
0
-0.026443575973757946
0
-0.05815617442940783
0
0.007001615776664259
0
-0.056183216106143095
0
-0.009146170112876502
0
-0.04262475831230051
0
0
0
0
0
0.023318736206384628
0
-0.09871648004484081
0
-0.022669341489176584
0
-0.11095758908036762
0
-0.02807022897723351
0
-0.08745130158295561
0
-0.04305962863342428
0
-0.023999165820574
0
-0.042279897378227904
0
0
0
0
-0.012646929505593261
0
0
-0.01786229344341456
0
-0.02947384036798884
0
0.021094023976686818
0
-0.03471749900637414
0
-2.61639202442765E-4
0
-0.024916041247378628
0
0
0
0
0
0.00791883132858817
0
-0.04834611870496706
0
0.009803303527198659
0
-0.07347066809194941
0
-0.0016632331047443825
0
-0.014300689604308173
0
-0.00846341106108451
0
0
0
0
0.0013223206901063838
0
0
-0.011441291310466097
0
-0.031362164630873414
0
0.028690452240234334
0
0.03000961005699307
0
0
0
0
0
0.0060145311806858335
0
-0.0023265243042344323
0
-0.00452298617543699
0
-0.0015281385993868052
0
-0.039566396586748105
0
0
0
0
0.012742193905634419
0
0
0.026253577582726288
0
0.021176519267433688
0
0
0
0
0
-0.008470661294252772
0
0.03452173598128395
0
0.024279999713783987
0
0
0
0
-0.0023375280097968844
0
0
0
0
0
0
0.019378734383423187
0
0
0
0
0
0
0
0
0
0
0
-0.06066411080409617
-0.007172929867970495
0.051416495671232104
0.0357434794066224
0.008607557611936571
-0.04432605017286087
-0.11091979214628368
-0.07250667987402347
-0.09052696401758736
-0.08042429676732582
-0.0941065061636402
-0.06381240775794533
-0.028043727108465043
-0.05304846005148822
-0.07115437010834096
0.019861179435820938
-0.08968795534005675
0.07531537940672474
-0.11160735025715239
0.09415980189729595
-0.11143222537198973
-0.18480429694400702
0.07819019200902623
-0.16126987469216078
0.005311029304560997
-0.024639720032945914
-0.10868243558386509
-0.08255230341225878
-0.11302767717853555
-0.08528511615268396
-0.12275162901164947
-0.06677876678425497
-0.10749262371899526
-0.07746876680434454
-0.054174628832888566
-0.10561130578719612
-0.04581384620795346
-0.0798978921763953
-0.07769225847996258
-0.16444018829380627
-0.0030942831730023522
-0.056053974371323444
-0.20450637461132
0.0903494426492928
-0.09113735504283665
-0.17399501719987753
0.11521097597336562
-0.17310642097797804
-0.17025988372575818
-0.103370809568396
-0.1895449895083058
0.10314299713734637
-0.18063031079489322
0.053718160687033105
-0.014548074671209938
-0.1581438509965851
-0.11539906912550758
-0.11359133396022035
-0.17577499045490763
-0.12531527457290806
-0.11894737725751224
-0.11848601702463753
-0.16469280059458968
-0.13149778442342294
-0.0790353725941504
-0.1293396136008164
-0.10689845347425835
-0.058931170814576085
-0.12008400863101044
-0.07917029549966577
-0.11639221176054283
-0.12585810984079385
-0.1538338094743095
-0.18103237174569653
-0.03991702327789925
-0.0908252439694292
-0.20675472706733475
-0.21657859136080024
0.03824558805624257
-0.06473110664832048
-0.2122249217864833
-0.18914650269326075
0.06993292455843171
-0.09089536409705706
-0.17682471071567638
-0.11975885261799772
-0.15547175584679696
-0.08156691355344468
0.04411722364060056
-0.07186665993250678
0.030902790171408522
-0.04322614526716218
-0.14897164841102029
-0.18301085955682692
-0.15767709980309152
-0.1914648073924742
-0.12089595560075728
-0.17433298028031444
-0.16074124992526773
-0.21069466804595383
-0.08652056007337139
-0.17276298797578307
-0.19987586478097696
-0.15314831552529598
-0.11993379829181348
-0.1638300419447374
-0.12681583975600172
-0.12807011168516538
-0.16006666685781126
-0.08327787594871511
-0.1125472299007546
-0.1758573384379024
-0.17092565343829513
-0.18268279112510155
-0.13572176232941877
-0.04203346206281419
-0.15041497396948908
-0.17350899552199997
-0.21717091042972217
-0.10087900648928388
0.03496834472533213
-0.11764614648835596
-0.1732776405439003
-0.187492238517485
-0.09104673432169437
0.04011497660370688
-0.12652910105569415
-0.15419311582779127
-0.09930393194976199
-0.09859661784994687
-0.14069923328112566
0.07518662120967196
-0.09965590093284014
-4.1729584885092736E-4
-0.04065008737521548
-0.09730589723113782
-0.1595745349591039
-0.1838811595157931
-0.23430771401857228
-0.1555053988171985
-0.07614258675818819
-0.15379522647784458
-0.1940100706930875
-0.19055063898600622
-0.15151720123166534
-0.1259629043307657
-0.1818283909284091
-0.1820381561923131
-0.0872594369877142
-0.11118244023253963
-0.22828428410106447
-0.10368340976055386
-0.13761143473903306
-0.13997552027520163
-0.07664736981262003
-0.07656065980800492
-0.19873404674704118
-0.22398691580405602
-0.1727310441995623
-0.1591884420550529
-0.09409042407109558
0.02269281923122167
-0.21441308245104904
-0.24472225270331813
-0.17599523188187852
-0.13141861206645014
-0.050768650214262655
0.028712380877967337
-0.2066364407090472
-0.2236567682208185
-0.15313193905689118
-0.09548011083257875
0.05293343428772701
-0.20015447518742405
-0.2022635501561153
-0.11633890892422534
-0.10241544726017476
-0.19644060281910122
0.052785232817953
-0.14629122789311033
-0.007925288479799222
-0.08527167489970017
-0.11957078512772808
-0.09133491522958859
-0.1645931948015672
-0.21950971491162544
-0.18653978508423819
-0.1591238659337129
-0.08647691643715777
-0.1634866888728497
-0.1861340849754818
-0.15431796837274925
-0.12023081542020482
-0.1164730290035725
-0.18872234382161504
-0.15560722978612193
-0.07089098606427148
-0.1729748005062074
-0.19085315805984762
-0.12217270871775292
-0.09619339738496417
-0.0075363393689159555
-0.03916766450769674
-0.11690882649605681
-0.1518484847651558
-0.26493941659474
-0.24722210929051633
-0.14360338405492457
-0.08683653234432148
-0.048690272239130104
-0.045083075977224246
-0.1592824204962864
-0.2879780571833282
-0.2235367498804068
-0.11424581354055889
-0.05762010264065819
0.0013540350033029646
-0.16642322913096474
-0.2727218185126652
-0.18192051640258863
-0.07713326299026396
0.07595510770924346
-0.17715025604519588
-0.19145374084099498
-0.13840026013246168
-0.14472136426975057
-0.16182641779626825
0.08176710840669797
-0.13108315272686463
-0.019772142901776965
-0.08928159931871947
-0.06860597072445122
-0.1468428007753482
-0.1957388608365939
-0.24768317768245132
-0.21333079311277878
-0.13838586762542168
-0.11543312324949791
-0.13697579076676028
-0.1979298756778274
-0.16970161145152038
-0.11759805587511214
-0.15236359751708373
-0.17080927869373486
-0.12816592406137048
-0.10446748420623979
-0.1091106384893208
-0.11060889084360177
-0.11702905215100741
-0.0767357314107599
-0.055985602343122574
-0.005459278148336328
-0.1589591957281731
-0.2741004217138527
-0.24914258363669742
-0.17259883011157043
-0.1265219492148145
-0.03575729356957536
-0.12713656826355826
-0.3043184739959395
-0.2322193595449127
-0.11840234409527357
-0.050033138672739945
-0.10729021000007423
-0.2776531764534349
-0.17959071878217878
-0.01438463013117029
-0.12221937668108913
-0.21528967230575088
-0.09473727268775883
-0.1432815889512025
-0.12801279259175938
-0.1071374004624765
-0.09528832651088591
-0.13823875283743503
-0.1710340318227046
-0.24841121153577292
-0.1863332779565425
-0.13716302452540244
-0.14952713929166347
-0.19385282029762715
-0.1286791588269615
-0.13555688711322253
-0.13498474614468228
-0.1390839446661856
-0.11748961781186566
-0.06715554312761955
-0.03787144461388289
-0.20397342080775024
-0.269354647200223
-0.1482528283837827
-0.10071620322574361
-0.0522972670195759
-0.18435154795073458
-0.2233326657998794
-0.11507322958671966
-0.08094899703091568
-0.18009448350712806
-0.1755642913913831
-0.06070259147114123
-0.15762052674330193
-0.09043704453530349
-0.07770755723157731
-0.11714920472423794
-0.09268902287804613
-0.20256907914863662
-0.19107308844203438
-0.12531383267210539
-0.15202211215500674
-0.14636569619336373
-0.12467236344974754
-0.07743418738316744
-0.029581053496227555
-0.24419744362147436
-0.14267180477219868
-0.08725360804257477
-0.08195163321348241
-0.20100270070979329
-0.12655894561704292
-0.05310599380853934
-0.14316586238280585
-0.07890825230401455
-0.07626548721863463
-0.06919601068464386
-0.137112151438444
-0.16186052775788784
-0.0867388759139318
-0.08068842337173955
-0.008859360384061625
-0.1680238115496634
-0.06107981016846687
-0.03598018579863883
-0.13432856677910973
-0.061913008941776766
-0.09113746945202904
-0.03227469020758459
-0.07622024933558852
-0.018526044129597036
-0.03753011103862916
-0.0236658734579448
-0.05449650490862354
0.016532577067388976
0.01769293339723173
</DataArray>
<DataArray type="Float64" Name="v" Format="ascii">
0
0
0
0
0
3.2194102682558875E-4
0
0
-0.002271722838528775
0
0
-0.002182191104516554
0
0
-0.0026443394588147946
0
0
-0.002342821082188941
0
0
-0.0022845533547076187
0
0
-0.001985114543907093
0
0
-0.003327496859654932
0
0
-0.006078741679782466
0
0
0
0
0
0
0
0
0
0
0
0
0
0
0
0
0
0
0
0
0
0
0
0
0
0
0
0
0
0
0
0.003916735910989843
0
0
-0.003388415774679309
0.036391384995728505
0
-0.0017704179111315622
0.00918973059600442
0
-4.807770219466744E-4
0.006191787627069376
0
-0.027186861198142186
0
-0.001051049849510469
-0.021156424296433454
0
-0.001061995826686731
-7.906139189785E-4
-0.004962089774568506
0
-0.0011112282478126024
-0.01779087185518713
0
-0.0017270683108662167
-0.04561722072568661
0
0
-0.0015237228325865745
0
0.010544312022528424
0
0
0.026492703889985706
0
0
0.0015811493743306145
0
0
0.042973255957573946
0
0
-0.0038447308291759837
0
0
0.018816065843467192
0
0
0.020548873997416447
0
0
-0.0057552224710250835
0
0
0
0
0
0.025151230609398275
0
0.03616819116516023
0
-0.0032911421757438907
0.05964825651400213
0.007159010761763232
0
-0.0011055224126544762
0.03165765165995794
0.031789366571241325
0
-6.327548480310398E-4
0.010886940275054406
0.032435981810092
0
-0.002898047115743546
0
-0.0308055511646745
-2.6372873739190103E-4
-0.00789138329237891
0
-0.016583227186903863
-4.917390782338922E-4
-1.366920626765358E-4
0.00814948173870772
-0.010904306483632671
0
-6.671209724234205E-4
-0.01591273851096681
-0.031316451114844386
0
-0.0015163583522038945
-0.03011691733777781
0
0
1.8437444150221866E-4
0
0.017354989452338987
0
0.032120884694559655
0
0.003554811127390019
0
0.0010288288878988955
0
0.009527653500849255
0
-0.0037174263917157404
0
0.007979579887006009
0
0.04288650295381736
0
0.01008674259043641
0
0.013393859797813152
0
0.029175317904487758
0
0.024021539734802855
0
-0.011531217756446131
0
0.02631036450362538
0
0
0.012230268215788395
0
0
0
0
0.04194367084531526
0
0.02804093769504201
0
-0.003390771604480474
0.04281859226946482
0.0037045586089313053
0
-7.414555930485351E-4
0.02400189551762444
0.02242377994230206
0
-5.630002238284257E-4
0.022687894735315794
0.018156602165786965
0
0.00870817346158592
0
-0.021906181403334727
-3.7174427541846383E-4
0.004305261784428472
0
0.019678986727010475
-2.332121059711646E-4
-5.201326095652103E-4
0.03182419422144755
-0.0032551699094324846
0
-1.1336137576918946E-4
-0.012421626421111005
0
-0.012718601005854334
-8.238080194815778E-4
-0.013566618300559217
0
0
-4.2561140344606714E-4
0
-0.012694664759242838
0
0.06844370228549712
0
-0.014775372942197442
0
0.02521620387422085
0
0.009351613294078251
0
0.04007866568185658
0
-0.01727466320460898
0
0.05010785487455972
0
0.02985472540273638
0
0.017889766822774277
0
-0.014473253028794193
0
0.030545762006942295
0
0
-0.006701411262733
0.03364824340326803
0
0
0.02821683054907564
0
0
0
0
0.03444071130950102
0
-0.045400180138071206
0
-0.003060960597341827
0.04682197714579837
-0.019698864275891678
0
-0.0013033970382617492
0.023784029871679536
0.008495577271248368
0
-6.386596802909359E-4
0.04895454799165822
0.01565241313938857
0
-0.021815536613849332
0
0.02072282283613498
1.12721354020395E-5
-0.029056485993778854
0
0.025244450500760116
1.6332449275782324E-5
-3.7096652763671944E-4
0.02384313673245719
0
-0.028632536928249446
-4.560089207148225E-5
-0.005335526159622738
0
-0.039985663144691104
-7.961612024845315E-4
-0.0036923215476978998
0
0
2.023344976875316E-4
0
-0.05244319920643877
0
0.04991354618723672
0
0.0015354077869740672
0
0.04294141721990651
0
0.006001693637476285
0
0.06187788195637419
0
0.006230830417093352
0
0.031983931050722315
0
-0.007100741784006419
0
0.02152315286477974
0
0
-0.0057913352775749724
0.0292575669083505
0
0
0.012896643290971531
0.03073931623572358
0
0
-0.0073623706118252545
0
0
0
0
-0.02544206575510725
0
-0.04418604154327355
0
-0.0038221400498174452
0.04189730670315806
-0.029958181243584098
0
-0.0012118609604553326
-9.894774102382797E-4
0.009298177596167552
0
-7.5742982733425E-4
0.03497978474153184
0.026863496505759185
0
0.006624986001084298
0
0.03869305416917134
-4.586827582650565E-5
0
0.01866619284652327
0.005597209061203107
-4.5308372736159944E-5
-2.1771887353053476E-4
-0.015143359819795971
0
0.007970092831926788
-2.0860008159475195E-5
0.0033126966425996492
0
-0.003091027540622862
-0.001235035478871152
0.010774569047988599
0
0
1.5295198893717964E-4
0
-0.01150811583357386
0
0.029685219007163994
0
-0.033464674819609054
0
0.03330446794880434
0
-0.014753091570445636
0
0.020406518237041097
0
-0.02951582362043133
0
0.0037605148875578405
0
0
-0.019004857745851363
0.0035290486778573643
0
0
-0.025602479270147794
0.0031379562943041153
0
0
-0.03579978963843743
0.00579104280113921
0
0
-0.019402320279553294
0
0
0
0
0.012649796846788667
0
-0.016276561669252173
0
-0.004040785667159744
0.019543665578140242
-0.01664379203648109
0
-0.0013807326401927642
-0.009898704673248994
0.03640026279874719
0
2.6308136229712626E-5
0.03310873314835005
0.022057498161918987
0
0
0.050502013292084785
-0.002506922172481241
-1.1806524831437669E-4
0
0.061359554216775684
-0.004067901764012783
-4.044401611968471E-4
-2.385212868322387E-4
-0.001973921513825414
0
0.022153407984643766
-5.546874235698568E-4
0.025285637676820422
0
-0.02256318506824162
-8.308014061140944E-4
0.018218518176788327
0
0
-3.3067957936437105E-4
0
-6.769469422733963E-4
0
0.01232261254098266
0
-0.032798034709571024
0
-0.01133031458812072
0
-0.006627160548652045
0
-0.03541263988798259
0
0
-0.05559650554677197
-0.021468581770203717
0
0
-0.09793031949997584
-0.02074016847879333
0
0
-0.017453987600951886
0.009684617835013008
0
0
-0.04295619429913408
-0.013426474499892706
0
0
0.0030186121268925125
0
0
0
0
-0.015067399176279866
0
0.017924207616283494
0
-0.004990061242927154
-0.030416677551691824
-0.026056525697705005
0
-0.0018559618714384834
-0.039642703526416884
-8.925205554896794E-4
0
-0.0010353470571203831
0.01565853526305339
0
0.028913003415637028
0
0.05679622140001677
-0.008323496345029711
-0.0011416853394224241
0
0.040629002813399435
-0.013165299587845286
-7.147135292236098E-4
-9.795869028313843E-4
0.03732307655091196
0
-0.002133004798785774
-0.0013392778843559743
0.02297089694357879
0
0.0028421153602422086
-0.0018116528761321093
0.0026755601199805953
0
0
-1.4152054001840677E-4
0
-0.00838571831077851
0
0.02059583518493152
0
0.0039882934754762135
0
-0.01367813075033947
0
0
-0.015045168756585176
-0.03709767694138891
0
0
-0.04534761233939933
-0.028711573428429327
0
0
-0.05872867139129594
-0.006598122774434546
0
0
-0.001221807014069737
0.0032037236461115175
0
0
-0.03446342346063017
0.012966024112242422
0
0
-0.0051416692063258876
0
0
0
0
-0.06903267783161898
0
-0.0242170518256043
0
-0.00827320847022374
-0.05606527973715527
0.018431678834538293
0
-0.0035884103969374467
-0.03307472650391116
0
0.013955784997560393
-0.002817981535979945
-0.007312552515868429
0
0.03038926126566711
0
0.048676269699625456
0.0015201303205902227
-0.0029405817241883957
0
0.02065924779963406
-0.031085644832057363
-0.002751699905770778
-0.0023052003123171
0.04048609564711589
0
0.024979046903848782
-0.002153130962847641
0.04182149875447225
0
0.03878647901708122
-0.0022621712036573
0.023782280372494094
0
0
0.0020473946576071928
0
-3.0085034653710366E-5
0
-0.015609631929275933
0
0
-0.008758199904629923
-0.023406447030050497
0
0
-0.006930991905377528
-0.007130369495204431
0
0
-0.03675119730074791
-0.024062662245986643
0
0
0.023828286801216448
0.018670084854427768
0
0
0.026597759236720322
0.031769931491938415
0
0
-0.03950371289369661
0.009356867746042411
0
0
-0.00885105484187538
0
0
0
0
-0.10067801184856505
0
-0.006239450448865047
0
0
-0.037457524451475675
0
0.013629619943487421
0
-0.014965058104281689
0
0.021172120606578984
0
-0.01363542650235522
0
0.01013131580084798
0
0.053216671256525766
-0.008010358938486008
0
0
0.005585443633820127
-0.0196632453756987
0
0
-0.006153231158167921
0
0.04784773595036371
0
0.05473476647531201
0
0.035701154824477895
0
0.04069544368964007
0
0
0
0
0
-0.021997530241166505
-0.021550646707945223
0
0
0.014766130086128261
-0.018226846748172224
0
0
0.012144492256530005
-0.029771516642385757
0
0
-0.011528739432823417
-0.034134628191777296
0
0
0.030126352378909375
0.01682983467830999
0
0
-0.02380788426459067
0.010631643147766386
0
0
-0.02241178495940331
-0.03453317319830362
0
0
0.021394588791995864
0
0
0
0
0
0
-0.013922016573673998
0
0.001258625961199974
0
-0.027378982819998513
0
-0.008521595063924666
0
0.012921640461290499
0
0.0044519683327317915
0
0.008960514039091767
0
0.003377167591236718
0
0.010990552012495271
0
1.1099007821151773E-4
0
0.018367344519600218
0
0.023588038434661854
0
0.02215767546229463
0
0.020482367834600015
0
0.0275534407165284
0
0
0
0
-0.005694877365206964
0
0
0.006665521612518822
0
-0.015573092542025551
0
0.01042092273829786
0
0.002550885855694574
0
-0.019613320571492735
0
-0.009808125939036523
0
-0.004190280632354274
0
0.010261677628160904
0
-0.004208513742521343
0
-0.02191060379298786
0
0.010082388892154874
0
-0.027383884900535848
0
0
0
0
0
-0.015389740214880251
0
0.021742495062096186
0
-0.011334748740121546
0
0.04676413081912398
0
-0.004938629383730044
0
0.006684273410709121
0
-0.01153338223494066
0
-0.036147505252752316
0
-0.006865472727261399
0
0.010396435743338593
0
-0.005348425378898943
0
-0.016288362578516385
0
0.01796356306233726
0
0
0
0
-0.004126277745072709
0
0
-0.02786487900962976
0
-0.02629633283302439
0
0.004379942077667689
0
-0.014963722295948926
0
-0.036755133057476325
0
-0.028442727890338446
0
-5.834336066644976E-4
0
0.0017784677637493467
0
0.020018216268215098
0
0.00879022220465611
0
0
0
0
0
5.004876688903629E-4
0
-0.015505417351823965
0
0.033894692625973256
0
-0.00260416200411178
0
-0.007055664040108542
0
0.03137884490278927
0
-0.0036183662393770625
0
-0.017446831253027543
0
0.032953672573992406
0
-6.802933023514235E-4
0
0.005353164810893252
0
0
0
0
-0.006479081446028629
0
0
0.017577385056826707
0
-0.0169047410859036
0
-0.012024589905943217
0
-0.034461013956308545
0
-0.0356872868167586
0
-0.023065711657302857
0
-0.015651463735559697
0
0.003192945300856635
0
0
0
0
0
0.04177620115627002
0
-0.005466988475901425
0
0.04807916509511948
0
0.0058117166218413395
0
-0.007299630342393612
0
0.028607494407519685
0
-0.036677948152753374
0
-0.006848377318497558
0
-0.003914819037862381
0
0
0
0
0.02068214443204501
0
0
0.02728159477090071
0
0.0016157759738235171
0
-0.00454632177175912
0
0.005197482782102122
0
0.0025884618082409393
0
5.820699037254652E-4
0
0
0
0
0
0.020783897533063325
0
0.00209700777610042
0
0.045403412845328776
0
-0.026286326626712927
0
0.016448867422665176
0
0.010637455712603884
0
-0.01671103818699547
0
0
0
0
0.04515998693711797
0
0
0.014188939325886331
0
-0.010859644128461384
0
-0.0036726445929032747
0
-0.005542560127415567
0
0
0
0
0
0.027697953804855666
0
0.001021094030122933
0
0.029452224356617724
0
0.02866128166438778
0
0.017240522479310124
0
0
0
0
0.030740524322863744
0
0
-0.015479068191195358
0
-0.017530072096994916
0
0
0
0
0
0.019919565469453462
0
0.015653394392874383
0
0.045229510063397954
0
0
0
0
1.8402995458834025E-4
0
0
0
0
0
0
3.5680271327693445E-4
0
0
0
0
0
0
0
0
0
0
0
0.06653400795781443
0.05054876666121099
0.01859280603818136
0.01546517215162759
-0.004315785776581705
-0.01269195438958178
-0.021851034919650777
0.042390055595318825
-0.02050907019001091
-0.010423842488366945
0.05082016257103791
0.07993167046210427
0.037665857567747534
0.0652568047403639
0.0381087424601566
0.03814974340777832
0.02703329431884705
-4.625002748008468E-4
0.028414162360128722
-0.037725671100068754
0.032455769649497146
-0.004498230247063253
0.014652275739134872
-0.04762042179038386
0.004858008934319636
0.0045921008168128006
-0.013847566573140067
0.0182799526404584
-0.03251796751903794
-0.008798139981058968
-0.00782231246298895
-0.005854794161961354
0.0037930085186105565
0.04311327819373931
0.0374728801578802
0.044460670714854406
0.021907231908385574
0.06124441430522872
0.02015771933371357
-0.038281726141219136
0.010433363369056044
0.005638625245051143