<?xml version="1.0" encoding="UTF-8"?>
<VTKFile type="UnstructuredGrid" version="0.1" byte_order="LittleEndian">
<UnstructuredGrid>
<Piece NumberOfPoints="1331" NumberOfCells="6000">
<PointData>
<DataArray type="Float64" Name="u" Format="ascii">
0
0
0
0
0
0.6287415558685395
0
0
0.7630920475461856
0
0
0.7863611958507487
0
0
0.7894673393265034
0
0
0.7906276455775708
0
0
0.7904063794901298
0
0
0.7898310946934594
0
0
0.7810618872779056
0
0
0.6550754944805198
0
0
0
0
0
0
0
0
0
0
0
0
0
0
0
0
0
0
0
0
0
0
0
0
0
0
0
0
0
0
0
-0.1888647462491524
0
0
0.7736065064617693
0.12669923600472155
0
0.9295133910733265
0.23360617985381985
0
0.955877380435327
0.25800411196200973
0
0.2664591734582861
0
0.9609002966728598
0.259749103929705
0
0.9613560463560072
0.9609480359329367
0.2384257308843961
0
0.9578265995444574
0.126151942309749
0
0.9340159248119222
-0.03107551383294015
0
0
0.8011616101470179
0
-0.12223929012102493
0
0
-0.09498302519508756
0
0
-0.03631043042262982
0
0
-0.011648602843692292
0
0
-0.012930639754869076
0
0
0.002030482513365172
0
0
-4.8081917203274103E-4
0
0
0.00210802127759044
0
0
0
0
0
-0.14625343279242561
0
-0.06323276935995037
0
0.8005209352690704
0.22066703063893522
-0.03657499824533438
0
0.9603626671286158
0.3465693097653029
-0.011762309300572505
0
0.9876996904773029
0.3577089873476787
-0.006038885503747438
0
-0.011558151909406877
0
0.39157556154858203
0.9920116157505733
-0.026447821706597915
0
0.3601170326253111
0.9929228762287116
0.9923839477115348
0.26505935960712684
-0.07735443141873594
0
0.9883486478321845
0.15883711002797432
-0.0316305354407597
0
0.9636577983331963
-0.016724349679350995
0
0
0.8134250641900115
0
-0.1366850375847308
0
-0.12914690677108412
0
-0.08250202955991354
0
-0.10257657881138373
0
-0.11060603298314992
0
-0.10628906706989878
0
-0.03775148258263272
0
-0.04133512953476993
0
-0.05516542690084911
0
-0.027268580042664706
0
-0.011502087866116673
0
-0.025102887166147905
0
-0.009291191502018514
0
-0.006448600714395218
0
0
-0.012277060628909408
0
0
0
0
-0.18493513629788225
0
-0.11537561206274204
0
0.8054936680251786
0.19491557954333072
-0.09190618211962359
0
0.966127169548887
0.3176284730741934
-0.08600363236349468
0
0.9933203713528295
0.40021364405775356
-0.09887923319561363
0
-0.07706307766973804
0
0.42704782271111275
0.997548478422757
-0.04868391837406883
0
0.3943743473791288
0.9985803279615914
0.9971407218499736
0.3024566036162399
-0.0689694395406648
0
0.99373987229197
0.17744768112590806
0
-0.058822429797136026
0.9682312150316205
-0.039829077832295695
0
0
0.8149378066667117
0
-0.11971327204520825
0
-0.14537674767643083
0
-0.1500917312369978
0
-0.08081116536046035
0
-0.10622423348216613
0
-0.084505601741859
0
-0.0970130147416408
0
-0.020164468162691625
0
-0.06783795847976141
0
-0.037258190915170214
0
-0.06514055477841273
0
-0.013944667055227117
0
0
-0.027192495609888276
-0.030632299404802842
0
0
-0.014672385143211049
0
0
0
0
-0.1780519658540767
0
-0.07936313940245393
0
0.8065763229713666
0.18028648252397075
-0.08854873012095571
0
0.9670771037978745
0.30664010872433173
-0.09437806942145731
0
0.9939089843327716
0.3821212080381357
-0.05663455410150788
0
-0.02972367676029608
0
0.41603964629037
0.9989442018395424
-0.02716362118853073
0
0.3850869791899793
0.9994321382933696
0.9986770065941802
0.302862560002163
0
-0.034803984180702775
0.9945925749120619
0.1700363189686991
0
-0.0425599885967285
0.9688123702112629
-0.025182349253244033
0
0
0.8144332012665151
0
-0.13503116529328718
0
-0.1694498151802253
0
-0.1513058700715354
0
-0.055378667029245786
0
-0.12718423969217266
0
-0.04720896914595251
0
-0.08338084383014893
0
-0.037942458910336506
0
-0.08206491172915781
0
-0.03993444934066515
0
0
-0.05558762527508671
-3.586398309931137E-4
0
0
-0.047308176919366986
-0.03389168307004565
0
0
-0.022042153400440297
0
0
0
0
-0.18763694049662216
0
-0.11178507058963201
0
0.8069753960536624
0.16987394526388797
-0.0883657649510668
0
0.9665894689857738
0.3336409259109238
-0.016734195635170184
0
0.9933600912808481
0.3958707996180523
-0.005432882406304019
0
0.014300961633524274
0
0.41312150860175906
0.9983095980806246
0
-0.010193891844065302
0.34413796642404537
0.998275024504221
0.9973247269775575
0.25104383359581145
0
-0.05352145084085746
0.9933932525552903
0.1588825634420412
0
-0.08184330960977099
0.9674937036671912
9.25732508652583E-5
0
0
0.8134224036489092
0
-0.1441999969664277
0
-0.13187339417455948
0
-0.15255500691901513
0
-0.06572968954051973
0
-0.09522622496316431
0
-0.02302847252687683
0
-0.0565971537179648
0
-0.03315391990559192
0
0
-0.12397571393922553
-0.05747815123973645
0
0
-0.10135958811505559
-0.03690494156243939
0
0
-0.042209057760221574
0.01335849594065114
0
0
6.677363527914175E-4
0
0
0
0
-0.14982088010145592
0
-0.09093714864788677
0
0.8055042993291454
0.19645998773365428
-0.05426257203507696
0
0.9619187549984106
0.3543476414499576
-0.04277534446745535
0
0.9876601065950522
0.42505337609268906
-0.026919778455243817
0
0
-0.02499812001989454
0.40337407433462164
0.9920609314991177
0
-0.04699070847368337
0.40733592393838863
0.9927885260349031
0.9922226086445564
0.32532888364209717
0
-0.08681054830041779
0.9879333021028084
0.17785924733230318
0
-0.06967113620344924
0.9622878134870624
0.027195787609467937
0
0
0.8079188128648217
0
-0.11432943771549033
0
-0.12662109286023618
0
-0.1022193636539757
0
-0.08384583519248624
0
-0.04309487719145713
0
-0.05975763692912552
0
0
-0.08517307203827708
-0.05146681995623247
0
0
-0.10908260265393745
-0.01143567358611689
0
0
-0.04843866921118712
-0.006598473284333672
0
0
-0.03897705947549526
0.008293422294871254
0
0
0.021432005201807144
0
0
0
0
-0.18744192387474032
0
-0.06384157171238901
0
0.7934580568706188
0.2446623657303447
-0.04307382227519386
0
0.9325191100857956
0.3422704496496101
-0.005327742401449994
0
0.9580311140460877
0.36800751747393906
0
-0.03489038356227766
0
-0.030307147514285787
0.3709935853877931
0.961190880114532
0
-0.05102507426138069
0.39618095449079527
0.9615078593686195
0.9612742884578508
0.32758114322155213
0
-0.08550421833251744
0.9562223302417702
0.2012336384878669
0
-0.06211597863500364
0.9315245311277848
-0.010779509733850674
0
0
0.7814864733307664
0
-0.08670324865956042
0
-0.13067713904506637
0
-0.05355302793037709
0
-0.05874415202123064
0
0
-0.0967821326924307
-0.04919571679455561
0
0
-0.10357817086268789
-0.06442459566633658
0
0
-0.06257448641676462
-0.010462787995685903
0
0
-0.04017377038923564
-0.013689582362411619
0
0
-0.0053787412683145444
0.02343165004235566
0
0
-0.005118240607638366
0
0
0
0
-0.21087554925928834
0
-0.02193414558920416
0
0.6466787896709999
0.171134725929547
-0.0018066040043537158
0
0.7804390077931055
0.3249375904705519
0
-0.01058013915889882
0.7904751744851025
0.382542342603223
0
-0.04072099194738831
0
-0.021680514669069225
0.4032046284198903
0.790466229870555
0
-0.04763669999706647
0.38267013023594026
0.7909972248856904
0.7899673694635582
0.29638085959820076
0
-0.060504942946492835
0.7864025835854519
0.17375243802861015
0
-0.06579438821307604
0.7644286473862332
-0.04442432865554658
0
0
0.6361994120387707
0
-0.007283449917037474
0
-0.13923375795122928
0
0
-0.11107577471513469
-0.09137693393701325
0
0
-0.0655773364174823
-0.048649203958992505
0
0
-0.06799771669989375
-0.027319224072428264
0
0
-0.060080270298189443
-0.009421496862647392
0
0
-0.042518984941235266
-0.00438495221698149
0
0
0.014957580702052145
-5.490924396291472E-4
0
0
-0.03235413533789696
0
0
0
0
-0.22157758435769725
0
0.011897930401247392
0
0
0.08136456289746373
0
-0.020084790538699545
0
0.20391601162545223
0
-0.029094323921978426
0
0.28061336881946547
0
-0.049105902227631816
0
-0.022458918037065952
0.318057174407697
0
0
-0.02549193528645233
0.3335090850268243
0
0
0.2571823642695144
0
-0.04885427276195676
0
0.15398724484969983
0
-0.09482548086026771
0
-0.045975300268152074
0
0
0
0
0
-0.03263775208198249
-0.12681416086094408
0
0
-0.041438508777500854
-0.05905188239467219
0
0
-0.05702457746924846
-0.05764372282962064
0
0
-0.0583835498363327
-0.021097867104724013
0
0
-0.027966119445133164
-0.0018295482922124704
0
0
0.035904453400358534
-0.02252800899384476
0
0
0.007296690866619947
-0.03508034275118133
0
0
-0.004719862273439467
0
0
0
0
0
0
0.016668559404652724
0
-0.10483558013825305
0
-0.03475507645933171
0
-0.06740535373960584
0
-0.030028567818293665
0
-0.009170497110074886
0
-0.05752188149253334
0
-0.04109505467868105
0
0.01503002498614564
0
-0.029743407274373485
0
0.0181007564698258
0
0.020343765259764553
0
-0.07489324210721547
0
-0.07754802938510451
0
-0.08396693414142022
0
0
0
0
-0.008937457303107911
0
0
-0.03882921070899314
0
-0.12418927923421559
0
-0.041964985213418855
0
-0.07153801577019103
0
-0.07869647186605055
0
-0.04592281474628248
0
-0.01889694826473876
0
-0.02559329284228114
0
-0.0058358589828956565
0
-0.053174384755443255
0
-0.0469564741545814
0
-0.047859868293776066
0
0
0
0
0
-0.00946773562872668
0
-0.12283199577874578
0
-0.05202708135582166
0
-0.10697591493316537
0
-0.03402818847398436
0
-0.09984830215949687
0
-0.0216519755813836
0
0.044924610891049294
0
-0.10381509992456465
0
-0.006808074418746635
0
-0.05542564375671916
0
-0.08515248917877033
0
-0.05543267135322893
0
0
0
0
-0.03374721014605265
0
0
-0.058501099991467166
0
-0.08347244572535838
0
-0.08030973313597124
0
-0.07025824190376377
0
-0.0734337457471959
0
-0.03299877558817813
0
-0.028771919839135
0
-0.03951613163469602
0
-0.04732449429846742
0
-0.06046754701438212
0
0
0
0
0
-0.021036897260279755
0
-0.05645020107177209
0
0.025679252118207836
0
-0.05677504825742268
0
-0.010286872354578695
0
-0.050901300566963396
0
-0.02443670186280882
0
-0.005416836636036714
0
-0.046492939609044555
0
-0.018928986533372993
0
-0.0368258404262887
0
0
0
0
-0.07004015085928221
0
0
-0.05686378268918698
0
-0.06827007298434463
0
-0.0923657924304881
0
-0.0807665485482329
0
-0.058159820072305045
0
-0.022344253994382793
0
-0.05588938280024292
0
-0.07616000712868522
0
0
0
0
0
-0.04880640111778046
0
-0.045295726765376326
0
-0.0035769517674722625
0
-0.04786630629979885
0
-0.006769728857940443
0
0.0017574282846676236
0
-0.01658777399532711
0
-0.01061537921473149
0
-0.01745261674699655
0
0
0
0
-0.012485680952826891
0
0
-0.0764670573711153
0
-0.07192960940209668
0
-0.04315793413408297
0
-0.0943638681048
0
-0.06426971703484276
0
-0.08438599522636171
0
0
0
0
0
0.0037079783042684215
0
-0.028516057727835272
0
0.01966634753260971
0
-0.04754024435912981
0
0.011673090879524282
0
-0.04513361417215001
0
-0.02590537442960968
0
0
0
0
-0.02888742900154306
0
0
-0.07263764903284974
0
-0.06455276995430469
0
-0.06776867800526272
0
-0.0639772287325086
0
0
0
0
0
-0.012801142738100605
0
-0.022188814651393666
0
0.01914062865282823
0
-0.026666939855794155
0
0.024520231942044553
0
0
0
0
-0.067812506367333
0
0
-0.034910884080458865
0
-0.06586720020223157
0
0
0
0
0
-0.027471371288595014
0
-0.04107789750096133
0
-0.03674880811397896
0
0
0
0
-0.054024378372004085
0
0
0
0
0
0
-0.005083813405517849
0
0
0
0
0
0
0
0
0
0
0
-0.10148788552866649
-4.787652826302794E-4
0.006124293744171478
0.013336606047503379
0.009764313106956664
-0.013681695463474362
-0.05320727258692547
-0.1467363887954902
-0.19024809003303486
-0.11245296674487194
-0.06891262636137091
-0.06649355828487134
-0.058974280275231404
-0.12486468362293641
-0.19457733851987677
-0.03324334614216195
-0.1876999290043052
0.00989186659912223
-0.15120398924641118
0.03489674276420026
-0.12349454541437231
-0.0960631659371149
0.0073862439561910844
-0.08906184325210216
-0.03025855238516807
-0.0628059238229209
-0.1759929381288812
-0.10513624241215958
-0.14759530031280332
-0.1362574892445849
-0.1531766350366092
-0.10797730216907936
-0.09415008156386097
-0.07589878432185058
-0.09973274540876602
-0.024044295966520014
-0.07723295396336578
-0.13976660800478283
-0.1722525353619847
-0.17335729563854352
-0.04187991709901498
-0.18130400916862388
-0.1472338570899231
0.00473487590828971
-0.13208599781067465
-0.13482806272356565
0.02210498278971733
-0.11146039551480662
-0.11709875467489507
-0.09487305737011022
-0.12771608416561828
-0.005280996805766155
-0.09918821875575805
-0.07559006478097823
-0.06448028862976908
-0.14903299135773204
-0.16785903725863782
-0.09585196981704343
-0.2087893969305771
-0.14856638468044772
-0.12481142287457865
-0.17856716295106392
-0.12385464094891714
-0.09393154567063706
-0.17529986609511294
-0.08114927977648125
-0.09550584046461495
-0.14471605217009123
-0.0798429482770635
-0.05578216249737231
-0.12782901479759368
-0.16747600429705442
-0.1759099535909293
-0.17178142258012216
-0.03049097698924508
-0.1713570648210888
-0.1802560637039807
-0.10687104384153373
0.029760634696662933
-0.13717698819208926
-0.17691718429016412
-0.0826774653479127
0.040129882975893344
-0.17421023002556135
-0.13219791777260145
-0.06292724365293001
-0.12325823798984235
-0.20366081102769618
-0.025571287158151476
-0.19581790677591468
-0.03094299926236398
-0.08735164766831317
-0.203648140249407
-0.1679788011349235
-0.20052332512750815
-0.11709492591104052
-0.20208322532041026
-0.17363192463972366
-0.13753389811060446
-0.09140252600341085
-0.15280282569567524
-0.1350266335006429
-0.11654047907838404
-0.10785515468434421
-0.1367852874992885
-0.11785233979411074
-0.0722925247521859
-0.10432545880358916
-0.05527981620417233
-0.01938573146771011
-0.12574255663040287
-0.1678372953519767
-0.21044956768506606
-0.1881219093578207
-0.1615304290164694
-0.027939094225855502
-0.14325371276278445
-0.20600076839163486
-0.18398871757933813
-0.08610552465332379
0.04844145818284599
-0.16176685548175807
-0.18830024770978337
-0.15458066089895037
-0.07050775681135524
0.033203480828626016
-0.15909642592694173
-0.19122860336044076
-0.08421281757336846
-0.12581912631788864
-0.1985049344018108
0.013504575997032713
-0.19417185308960863
-0.03480436094211647
-0.07373912990784669
-0.14713373523450543
-0.1813225582714627
-0.1613901557474167
-0.13368895202740871
-0.16385691776289016
-0.09956775058023766
-0.17964305178333373
-0.11523449582784341
-0.16508623845636675
-0.15177397055491826
-0.10134588446170235
-0.09520683211618765
-0.07124219646064624
-0.11238511317350645
-0.07030397032773535
-0.04229156106886808
-0.06761406228521659
-0.06968188349689998
-0.057834296431919556
-0.01596708790773686
-0.08890350398491725
-0.21450454100287633
-0.21769736070241483
-0.20510259077886359
-0.18648314032627666
-0.09787168740351328
-0.05493808025082783
-0.19544498053852066
-0.2382086441096493
-0.22449536462973266
-0.16485455588305828
-0.04565171912900059
0.01926751090837615
-0.18485228556699126
-0.24894245083925873
-0.15444182473292137
-0.13627742699189238
0.022729929646393518
-0.15110729398641268
-0.24199159011068874
-0.07887705600823279
-0.16380457609603696
-0.1784166637772713
0.03463255989250381
-0.16219790015665006
-0.01288423146057372
-0.10343421112228772
-0.054472470803986116
-0.19806184853459022
-0.16887490395936397
-0.23563568482956568
-0.16216492006684657
-0.11806298344724152
-0.07159467994632183
-0.14374548351251218
-0.1125634363475269
-0.20459238105154123
-0.11692288089447798
-0.062186721516894757
-0.0536204712458958
-0.11088610736066908
-0.09914233237876517
-0.08486018887128205
-0.10125432959417531
-0.07120944681412328
-0.037103240350801786
-0.040287573356962175
2.561620285039048E-4
-0.09691964518625769
-0.16306714683782983
-0.23288571081051837
-0.26338017497385974
-0.18857063866861423
-0.15453357154060565
-0.017077007211613534
-0.046365306952353275
-0.16256147099038418
-0.17915365727840096
-0.22094098268879112
-0.1880664667309274
-0.08825233380201825
0.01740689965611232
-0.12239713133286086
-0.19130071487902175
-0.20290483113528876
-0.1296466020195823
0.038306241676027135
-0.12976195087335882
-0.18953121120336205
-0.10919965367081025
-0.10068655902904738
-0.14661832074542047
0.019226381799217266
-0.12324159592976076
-0.028403583113397707
-0.10689038773216154
-0.08533534810142446
-0.16296671713953892
-0.1529926331479504
-0.20911960223212314
-0.1630880472634838
-0.1278591107897841
-0.09984669850333859
-0.1143219550961012
-0.10872678384768171
-0.12283520935761554
-0.11752309172670368
-0.09131957866220049
-0.06618517991238117
-0.10072534883504264
-0.05930619381933488
-0.05741533202601149
-0.05125534026429938
-0.07473631228992865
-0.01814563320596863
-0.025592606932049577
-5.075233617638645E-5
-0.1254928758938809
-0.16502157775693685
-0.17157947490382408
-0.18156413756291603
-0.16273129974863168
-0.08555816638668917
-0.11467263193310552
-0.14141480223291703
-0.1634634490227934
-0.1798016724198552
-0.10529095919722296
-0.1118710748735234
-0.1538141701244821
-0.1163778841934806
-0.13297611804869677
-0.09391288410332826
-0.11119017246364131
-0.07311015846130094
-0.03499758241291465
-0.13452013335305932
-0.13103489915716438
-0.07731292414570828
-0.14238257914750743
-0.13261063322400193
-0.11722706487509572
-0.1537563234158227
-0.11528146356346887
-0.05860806188521408
-0.09225239355661892
-0.04790787645085413
-0.07286970809975474
-0.06818246598612165
-0.07014415468647324
-0.06333740859814886
-0.02815710358600706
-0.01661107834531961
-0.11695684102527258
-0.10239538131044852
-0.16133391804483613
-0.12371709675164662
-0.07478314323503304
-0.08825646865817688
-0.1165292965204142
-0.13753941953649654
-0.07921522137589253
-0.11270255805552858
-0.10710941948698947
-0.07544094879114295
-0.11221164116574596
-0.05577693557208733
-0.09125182122115666
-0.06999417131236373
-0.0575183978143042
-0.11891813566042235
-0.0510612684174531
-0.05812244137485229
-0.061845808589144215
-0.0823806832653124
-0.055131952953208746
-0.05381586439953947
-0.04530188382402068
-0.10098362808877742
-0.11438609724545858
-0.07956273192738866
-0.013149726001245194
-0.10526214750608572
-0.10615881165018233
-0.061025015650196794
-0.04477551990605941
-0.06579293441415685
-0.010084757361273865
-0.05812966214936572
-0.019740341933094662
-0.09385373813427816
-0.04713956622206319
-0.09078828519231202
-0.053171914076474786
-0.09611558065955168
4.1802993464888817E-4
-0.02932821398260736
-0.07904568002567364
-0.005428015876164514
-0.030988456574690886
-0.03992211796578395
-0.09445516673450953
-0.0902687309069634
-0.047764339000127005
0.005567422954769432
-0.01181954312709921
-0.05603759003397426
-0.04782575563750192
</DataArray>
<DataArray type="Float64" Name="v" Format="ascii">
0
0
0
0
0
8.945663506313753E-5
0
0
-0.00244120124887898
0
0
-0.002418743052421051
0
0
-0.0025959775585622413
0
0
-0.0024912758187615744
0
0
-0.002500801610691671
0
0
-0.0020563070989051816
0
0
-0.0034006204772116587
0
0
-0.0058943347633185076
0
0
0
0
0
0
0
0
0
0
0
0
0
0
0
0
0
0
0
0
0
0
0
0
0
0
0
0
0
0
0
-0.006639703875546493
0
0
-0.003242108989175566
-0.00797909170965247
0
-0.0017014094728633568
0.011521463419798683
0
-0.0012829072417782099
-0.03805146346755937
0
-0.011719211594106051
0
5.179730281065052E-5
-0.008129563842883566
0
-9.91773059819248E-4
-0.0014132295920594436
-0.01736433598092812
0
-2.926828229678535E-4
-0.03311920002589455
0
-0.001568277007003278
-0.009040052617742546
0
0
-0.0016141380694570835
0
0.024524273796087865
0
0
0.01482149338819005
0
0
0.0012645424253796493
0
0
-0.02576123255281026
0
0
6.150296665895263E-4
0
0
0.01986379213296247
0
0
-0.007190333038277374
0
0
-0.004957193947400986
0
0
0
0
0
0.0040152580879015305
0
7.366429433552093E-5
0
-0.003639821886151908
0.020536598998685332
0.0029762153619491056
0
-9.916700188143236E-4
0.050459274449393327
0.0014230905268815886
0
-3.256531075739593E-4
-0.027022853226666522
-0.00846063647531404
0
0.019305196600499105
0
-0.012128478130503885
1.0455323224079466E-4
-0.01675281386697919
0
0.033085985355155174
6.82773343353007E-5
-1.717067445358952E-4
-0.028237661748091402
-0.026187342084267203
0
-2.1018322231590417E-4
-0.022187464640962714
0.0023799506566534096
0
-0.0010727819478376177
-0.01518589365021937
0
0
-3.480122512534351E-5
0
0.02179354840174996
0
0.05624584898840596
0
-9.528517899345803E-4
0
0.032746933500309695
0
-0.019294379520895025
0
-0.006015050106274036
0
-0.013422619420338365
0
-0.04681903502554976
0
-0.004156035419149611
0
-0.013456675946925125
0
-0.016487353186400194
0
0.005621660724328879
0
-0.01400245776615982
0
-0.007667542064434103
0
0
-0.013000446104546627
0
0
0
0
0.0020652738300600292
0
0.048667666498244395
0
-0.0038338583288351
0.033030951235917365
0.008523196536193127
0
-0.0013140176882209013
0.02482338946192764
-0.01434279746065859
0
1.7565393552317128E-4
-1.9396248835885062E-4
0.05336233716410572
0
0.009244919556060273
0
-6.629496468083773E-4
-5.681473290454996E-4
-0.02393827872124687
0
0.029058642229646593
4.517770606484557E-4
3.5540385932597676E-4
0.00840597928830795
-0.05199063532343526
0
-1.1320823123413215E-4
0.002785418130590694
0
-0.02368500897304561
-0.0011090789017563342
-0.04344963839232518
0
0
2.970407436646675E-4
0
-0.003939375470297278
0
0.06567858624049251
0
0.0069682365545034606
0
-0.005355331424512152
0
-0.006723443859944316
0
-0.013107903562388924
0
-0.026773718510223112
0
-0.07923992598294725
0
-0.036135618459857334
0
-0.03659508806074497
0
-0.031041937124404395
0
-0.037282182947243496
0
0
-0.005493036168754851
-0.059858252917605693
0
0
-0.005923179878993327
0
0
0
0
0.027884082534430015
0
0.029210134806979166
0
-0.0034686563732058483
0.026258686819788865
9.477239280264485E-4
0
-0.0010085292288758271
0.01348143140540161
0.012930068975769574
0
-2.2003278790583183E-4
0.02578568852877371
0.020011849946557355
0
-0.015448115259433131
0
0.0325656865199954
-1.1889583938651966E-4
-0.03423228704319089
0
0.07965135766437381
5.5005134325644506E-5
-4.659877066749702E-4
0.03787672998685109
0
-0.05222590454306219
-2.7855282355792986E-4
0.04546315754199739
0
-0.013512403184752551
-9.332092187043606E-4
-0.005785858282669424
0
0
2.0738013638770358E-4
0
0.019329984456707652
0
0.034684762874510305
0
0.02149240495437837
0
0.02260486131520563
0
-0.012305645442793722
0
-0.020633316303290794
0
0.009448870634024055
0
-0.06892218696433756
0
-0.019730319246267156
0
-0.0555169175566823
0
0
-0.05120489825512121
-0.008867675839110996
0
0
-0.011602832550689777
-0.03100313769873678
0
0
-0.016191522977359554
0
0
0
0
0.008152234988063336
0
-0.019124982904217977
0
-0.003799813764439245
0.009887620968703078
0.0020865792800599877
0
-0.0011704193361153172
8.30353273963996E-4
0.042753251249665884
0
-6.177245705886747E-4
0.041550993826516384
0.012128676340788312
0
-0.00194114691152969
0
0.021921662143508155
2.9053387700672277E-4
0
-0.06534197748294467
0.05033044178972553
-8.182243888416449E-5
-1.6950062034152291E-4
0.05402272396494379
0
-0.09027068853280397
-2.6971690585982537E-5
0.0566966045312003
0
-0.02804371429098806
-0.001030116602689722
0.021023205305636613
0
0
-2.7023847570314784E-4
0
0.011827096327329015
0
0.016505054997225935
0
0.02297480635039177
0
0.03160584874973372
0
0.014288689906835165
0
0.0028070533569140026
0
-0.01585159727681812
0
-0.03010895171408993
0
0
-0.041401523114662046
-0.06196090490345108
0
0
-0.07203561527452741
-0.03497290512433663
0
0
-0.07444349306767511
0.0075688246285528045
0
0
-0.040555212534193245
0
0
0
0
0.011462198768659617
0
-0.007111229645640268
0
-0.003964267069597676
-0.025007747098455546
0.03966460999656108
0
-0.0012400947045140087
-0.021248080988066635
0.016503221382423605
0
-5.667214315073388E-4
0.06692952785141436
-0.0063626294660882625
0
0
-0.024954973086539364
-0.001879626209082721
-2.4243269046819412E-4
0
-0.06513567357033108
0.030952766116533265
-3.965254966011474E-4
6.692970699518337E-5
0.06804832050574834
0
-0.02622250406487314
-4.783061194831069E-4
0.07608477029111965
0
0.017340862802596484
-7.679244903240743E-4
0.03280397757214423
0
0
8.22385004006198E-5
0
0.0025776254008373152
0
0.0057963964554266665
0
0.020179787477931536
0
0.05199648568503449
0
-0.0071216249319610014
0
0.0039383616863371265
0
0
-0.011432354871394927
-0.03930819331406168
0
0
-0.0365426115695514
-0.03503788543287733
0
0
-0.031841379650275226
-0.008262365847057702
0
0
-0.0728209216128075
-0.010349355060300734
0
0
-0.01838913347876038
0
0
0
0
-0.04267039233709168
0
0.009203984765222738
0
-0.004752979302045252
-0.04606561771679129
0.0028139170802413387
0
-0.0023424972241708024
-0.024978191114157042
0.019800686950542476
0
-0.0018342492294289652
0.03616097424219542
0
0.018683230848218334
0
0.0021707872525199103
0.037678370709824306
-7.098988841435756E-4
0
-0.025847935305118985
0.045841180827230245
-0.0010291117119896336
-8.808617476536803E-4
0.06525630941744721
0
-0.00977889426743412
-7.475491296551371E-4
0.07453381971129397
0
0.031031624114144545
-0.0012584191727942372
0.01677557675389379
0
0
4.773020410921214E-4
0
-0.02627684342935366
0
0.031484899452848054
0
-0.015771516452573037
0
0.026969409679168707
0
0
-0.02550195549977929
0.010386378531112433
0
0
-0.002290645996477381
-0.030980359330945683
0
0
0.0086707256056944
-0.02459738293007062
0
0
-0.027417846686082017
0.004714260643133321
0
0
-0.08693604917930144
0.002192412600332046
0
0
0.00843975354877047
0
0
0
0
-0.01931355135946389
0
0.008050545728765903
0
-0.008123090016685095
-0.0631603992058536
9.382335071344135E-4
0
-0.0034639147009672736
-0.06480730087323965
0
0.003290211749718289
-0.002500127599812367
-0.008859479703569205
0
0.016064670778231423
0
0.0202124777362962
0.0036894129523289032
-0.00259741289897658
0
0.03899817984449685
0.019144239690861934
-0.002499897013733232
-0.002268727353379365
0.018048353732410746
0
0.02416133432729128
-0.0025757427299948382
0.08403416126900164
0
0.03973112820739732
-0.002305369304807695
0.06273444514153555
0
0
0.001707689497273998
0
-0.0029322908264690834
0
0.00971475265517411
0
0
-0.050405253757807474
-0.0017396076978615715
0
0
-0.03345141072763224
0.009035142403863524
0
0
-0.0013391276307013371
-0.0287277954319597
0
0
0.025957485521991133
0.015330755275933644
0
0
-0.051708669527670746
0.023325311158079492
0
0
-0.07720637042549389
0.0041842694412359
0
0
0.02163967338944646
0
0
0
0
-0.0896155675739973
0
-0.021787147602886078
0
0
-0.02712518348020958
0
-0.01307552375619775
0
-0.05160411046394678
0
-0.0018190422441338478
0
-0.006374548749470475
0
0.02501141398763163
0
0.04972922687689316
-0.019828672665581182
0
0
0.060158492143205226
-0.02739145854508517
0
0
0.011504703403243477
0
0.004068976166131292
0
0.05670243355297006
0
0.039503282391616275
0
0.051659755777182875
0
0
0
0
0
0.011956374864499872
0.005009750272896809
0
0
-0.02812079922574794
-8.783877918087218E-4
0
0
-0.05454006013241353
0.0033503116116882278
0
0
-7.349336870446412E-4
-0.015778876271776116
0
0
0.023378026413418063
0.01541109606392351
0
0
-0.0504101422102797
0.03353429599459997
0
0
-0.020265209383051094
0.018461875391078023
0
0
0.019678865098057993
0
0
0
0
0
0
-0.017549531864944363
0
-3.659068544118445E-4
0
-0.0270700496543379
0
-0.010899626095622008
0
-0.005530178814454666
0
0.02030565884064088
0
0.01966043909347638
0
0.08006046747298369
0
-0.032270244633107764
0
0.07769656125069478
0
-0.015229570771536026
0
-0.005956991556072833
0
-0.02329879537143488
0
0.07376070141985448
0
0.026831260290720357
0
0
0
0
0.056448461204612575
0
0
-0.031773099900539864
0
-0.003606999981541848
0
-0.02748786145541253
0
0.0029353277667112467
0
0.010916319926822349
0
0.012353102245746268
0
-0.01940636653059795
0
-0.01621755368415345
0
-0.04019308619056991
0
0.02609167582567085
0
-0.03501648711033279
0
-0.034384875052350466
0
0
0
0
0
0.0028385223670102985
0
-0.013636812616020606
0
-0.0200775068577478
0
-0.017541278065510885
0
0.03417639240259097
0
-0.015109113321583273
0
0.01858881369365573
0
0.07195266839551982
0
-0.02518157839412438
0
0.03900724206183412
0
0.01420416784981913
0
0.05699755248802285
0
-8.44230719083005E-4
0
0
0
0
0.03356945795818323
0
0
-0.052517780155123324
0
0.01961111778838803
0
0.017081937062060088
0
-1.492457240227368E-4
0
0.013506487070144325
0
-0.02030016327488794
0
-0.05564272184586618
0
-4.331600358356636E-5
0
-0.002739480792887208
0
-0.006044116211022857
0
0
0
0
0
-0.013012401344838555
0
0.008447441184658315
0
-0.01547210448209241
0
-0.028963850556712214
0
0.021164688291569363
0
-0.006841165287924664
0
0.006027104408946517
0
-0.007688053843678796
0
0.011879553484843262
0
0.010245821878221957
0
0.038089932832398456
0
0
0
0
-0.021941108476164164
0
0
-0.05056237262633726
0
0.005298988029890415
0
0.017249398620527216
0
-0.016613080657511273
0
-0.02363914300427594
0
-0.006962889305501816
0
-0.016780063336389987
0
-4.922364146527197E-4
0
0
0
0
0
-0.013490869063265182
0
-0.02129115314945645
0
-0.013610115065952772
0
-0.026418869186858582
0
-0.022693553316727885
0
0.023515293059974237
0
0.027490105546094587
0
0.02044633787092913
0
-6.686362156089703E-4
0
0
0
0
0.0011820954167224501
0
0
-0.025778517699068988
0
-0.053454407529766795
0
0.024901325635398226
0
-0.004326665218630672
0
-0.013717146088809197
0
0.026586292291376393
0
0
0
0
0
-0.011101689680154262
0
0.007792474043991936
0
-0.02062564111011583
0
-0.0036380276941039157
0
-0.036245500302203165
0
-1.0950199114806147E-4
0
-0.008972187940300221
0
0
0
0
0.031379958221932396
0
0
-0.025668447182586058
0
0.008351768258371297
0
-0.015009077610793157
0
0.010395621955366606
0
0
0
0
0
-0.023144651686687178
0
0.02193400195128087
0
-0.009525187157495335
0
-0.005221483750809001
0
-4.189544020907038E-4
0
0
0
0
0.013007570075312112
0
0
0.019550063668606014
0
-0.007881101951745122
0
0
0
0
0
-0.03695053211873525
0
0.01915002037584483
0
-0.013191111580578375
0
0
0
0
-0.008325866692559115
0
0
0
0
0
0
-0.010079150381689108
0
0
0
0
0
0
0
0
0
0
0
0.018931441009767583
0.024451180588321398
-9.117152754507589E-4
0.017622261169727375
0.0484035282517107
0.018850129415832917
-0.041770215726529364
0.029518900908313783
-0.012807139306391012
-0.02759517391594338
-0.009235652394050282
-0.01825937598052203
-0.051666422548049644
0.040200553242685594
0.04046808845061211
0.02820243356854214
-0.012613372251061497
0.013724450932436537
0.02143143146440185
0.04917575688468489
0.07677051085098328
0.03215381599015362
0.07799161773068292
-0.03502150238797234
0.032703352054053496
0.0188085558349988
0.015484037408186805
0.03820640606951175
0.008869249728453045
0.0011894718739979273
-0.011195105592287256
-0.08417103553604212
-0.08805859668468696
-0.052321631300323634
-0.07334302743467334
-0.023662655530927685
-0.058506301270423965
0.04906320557449203
0.020083424440887065
0.015565313895668878