Variables=x,y,z
Zone n=372, e=740, f=fepoint, et=triangle
0.12884052680775934 0.88 0.068561430653603192 
0.14928194668137706 0.88000000000000012 0.040000052083863757 
0.16 0.88 0.080000000000000043 
0.11194114642962172 0.88 0.087970741031693195 
0.11730030421311399 0.88 0.045148722689676721 
0.099451386368653916 0.88 0.066902919186101528 
0.094818359476046346 0.88 0.03449742076575673 
0.11999994791613625 0.87999999999999989 0.010718053318622975 
0.080000000000000002 0.88 6.252776074688882e-17 
0.11328223602811494 0.88 0.11484490398817725 
0.12949389260074134 0.88 0.093979942939741143 
0.14928194668137704 0.87999999999999989 0.11999994791613633 
0.11999994791613626 0.88000000000000012 0.14928194668137712 
0.06752150625361468 0.88 0.031402715647237255 
0.15582029522045979 0.85260443714320655 0.10552024358587359 
0.10552024358587303 0.85260443714320655 0.0041797047795400673 
0.044419916254774747 0.88 0.048263854190558168 
0.010718053318622939 0.88 0.040000052083863771 
0.040000052083863716 0.88000000000000012 0.010718053318622994 
0.13591323801788435 0.84370209957488762 0.022783657803426432 
0.15532498840320269 0.85263582524216119 0.053052901416713247 
0.16000000000000003 0.84000000000000008 0.080000000000000043 
0.084075945513211944 0.88 0.095864734420133255 
0.092729006833867714 0.88 0.12835837885318863 
0.074320295182289442 0.88 0.063133324114340875 
0.066907104778969495 0.88 0.12606720081799472 
0.079999999999999974 0.88 0.16000000000000006 
0.053052901416713191 0.85263582524216108 0.0046750115967973413 
0.080000000000000016 0.84000000000000008 4.653657836759943e-17 
0.13721634219657358 0.84370209957488773 0.13591323801788444 
0.10694709858328678 0.8526358252421613 0.15532498840320275 
0.055563777819786948 0.88 0.077990595020314343 
0.054712483430240509 0.88 0.10267906197825423 
0.030355818184578394 0.88 0.06952927491451924 
0.031254981866459516 0.88 0.094631409938351813 
0.15450377664264772 0.81947608969211483 0.10914081786742547 
0.15376959517913308 0.8194770247173615 0.0490476684705849 
0.10914081786742538 0.81947608969211483 0.0054962233573523098 
0.16 0.79999999999999993 0.080000000000000043 
0 0.88 0.080000000000000029 
0.0041797047795401453 0.85260443714320655 0.054479756414126647 
0.022783657803426387 0.84370209957488773 0.024086761982115682 
0.13515147704867658 0.80052422348711993 0.022049032973130694 
0.042608508468419896 0.88 0.11590003831240607 
0.040000052083863723 0.88000000000000012 0.14928194668137709 
0.01071805331862294 0.88 0.11999994791613633 
0.054479756414127202 0.85260443714320666 0.15582029522046009 
0.079999999999999974 0.84000000000000008 0.16000000000000009 
0.049047668470584851 0.8194770247173615 0.00623040482086697 
0.080000000000000002 0.79999999999999993 4.408728476930471e-17 
0.13795096702686932 0.80052422348711993 0.13515147704867667 
0.11095233152941512 0.8194770247173615 0.15376959517913311 
0.0046750115967972945 0.85263582524216108 0.10694709858328684 
0.15463136655805354 0.7799945774724919 0.10881248211587206 
0.15261645752532865 0.77999999999999992 0.046431412057220268 
0.10881248211587197 0.7799945774724919 0.0053686334419464745 
0.15999999999999998 0.7599999999999999 0.080000000000000016 
0 0.84000000000000008 0.080000000000000043 
0.005496223357352263 0.81947608969211483 0.050859182132574669 
0.022049032973130649 0.80052422348711993 0.024848522951323455 
0.13431547584027226 0.76008646682660186 0.021264754327194695 
0.024086761982115634 0.84370209957488773 0.13721634219657367 
0.046431412057220234 0.77999999999999992 0.0073835424746713915 
0.050859182132574593 0.81947608969211483 0.15450377664264778 
0.079999999999999974 0.79999999999999993 0.16000000000000003 
0.11356858794277976 0.77999999999999992 0.15261645752532871 
0.13873524567280535 0.76008646682660175 0.13431547584027231 
0.079999999999999988 0.7599999999999999 4.1637991171010003e-17 
0.0062304048208669232 0.8194770247173615 0.11095233152941518 
0.15462918318519125 0.73999999999999921 0.10881813694726236 
0.15261645752532865 0.73999999999999999 0.046431412057220317 
0.10881813694726232 0.73999999999999921 0.0053708168148087843 
0.16 0.71999999999999997 0.080000000000000043 
0 0.79999999999999993 0.080000000000000029 
0.0053686334419464276 0.7799945774724919 0.051187517884128064 
0.021264754327194647 0.76008646682660175 0.02568452415972778 
0.13417579682853722 0.72001441113776599 0.021135893466450614 
0.0248485229513234 0.80052422348711993 0.1379509670268694 
0.046431412057220262 0.73999999999999999 0.0073835424746713759 
0.080000000000000002 0.71999999999999997 3.9188697572715302e-17 
0.051187517884128036 0.7799945774724919 0.15463136655805365 
0.079999999999999946 0.7599999999999999 0.16000000000000003 
0.11356858794277969 0.73999999999999999 0.15261645752532874 
0.13886410653354941 0.72001441113776599 0.13417579682853725 
0.0073835424746713446 0.77999999999999992 0.11356858794277981 
0.15462918318517033 0.6999999999999954 0.10881813694731644 
0.15261645752532865 0.69999999999999996 0.046431412057220275 
0.10881813694731642 0.6999999999999954 0.0053708168148296678 
0.15999999999999998 0.67999999999999994 0.080000000000000043 
0 0.7599999999999999 0.080000000000000016 
0.005370816814808721 0.73999999999999921 0.051181863052737753 
0.021135893466450589 0.72001441113776599 0.025824203171462806 
0.13415248724966788 0.68000240185628891 0.021114448931214436 
0.025684524159727735 0.76008646682660186 0.1387352456728054 
0.046431412057220234 0.69999999999999996 0.0073835424746713759 
0.079999999999999988 0.67999999999999994 3.6739403974420589e-17 
0.051181863052737676 0.73999999999999921 0.15462918318519128 
0.079999999999999974 0.71999999999999997 0.16000000000000003 
0.11356858794277976 0.69999999999999996 0.15261645752532868 
0.13888555106878556 0.68000240185628891 0.13415248724966794 
0.0073835424746713134 0.73999999999999999 0.11356858794277973 
0.15462918318504498 0.65999999999997239 0.10881813694764124 
0.15261645752532865 0.65999999999999992 0.046431412057220234 
0.1088181369476412 0.65999999999997239 0.0053708168149550831 
0.15999999999999995 0.63999999999999979 0.080000000000000029 
0 0.71999999999999997 0.080000000000000029 
0.0053708168148296365 0.6999999999999954 0.051181863052683588 
0.021114448931214416 0.68000240185628891 0.025847512750332126 
0.13414860149479155 0.64000040030934935 0.021110875739587934 
0.025824203171462782 0.7200144111377661 0.13886410653354947 
0.046431412057220296 0.65999999999999992 0.0073835424746713446 
0.079999999999999988 0.6399999999999999 3.4290110376125876e-17 
0.051181863052683588 0.6999999999999954 0.15462918318517041 
0.079999999999999974 0.67999999999999994 0.16000000000000003 
0.11356858794277976 0.65999999999999992 0.15261645752532868 
0.13888912426041211 0.64000040030934935 0.13414860149479158 
0.007383542474671329 0.69999999999999996 0.11356858794277976 
0.15462918318429245 0.61999999999983491 0.10881813694958992 
0.15261645752532871 0.61999999999999988 0.046431412057220373 
0.1088181369495899 0.61999999999983491 0.0053708168157075575 
0.16000000000000003 0.60000000000000009 0.080000000000000029 
0 0.67999999999999994 0.080000000000000016 
0.0053708168149550518 0.65999999999997239 0.051181863052358799 
0.021110875739587896 0.64000040030934935 0.025851398505208477 
0.046431412057220262 0.61999999999999988 0.0073835424746713603 
0.13414795384784997 0.6000000667180323 0.021110280234228427 
0.025847512750332095 0.68000240185628891 0.13888555106878561 
0.080000000000000016 0.59999999999999998 3.1840816777831175e-17 
0.051181863052358792 0.65999999999997239 0.15462918318504498 
0.07999999999999996 0.63999999999999979 0.16 
0.11356858794277969 0.62 0.15261645752532871 
0.13888971976577158 0.60000006671803241 0.13414795384785 
0.0073835424746713603 0.65999999999999992 0.11356858794277983 
0.15462918317977756 0.57999999999901009 0.1088181369612819 
0.15261645752532865 0.57999999999999996 0.046431412057220234 
0.1088181369612819 0.57999999999901009 0.0053708168202224373 
0.16 0.55999999999999994 0.080000000000000029 
0 0.63999999999999979 0.080000000000000016 
0.046431412057220234 0.57999999999999985 0.0073835424746713759 
0.0053708168157075263 0.61999999999983479 0.051181863050410142 
0.02111028023422841 0.6000000667180323 0.025852046152150046 
0.13414784591682014 0.56000001111851716 0.021110180993924779 
0.025851398505208446 0.64000040030934924 0.13888912426041214 
0.080000000000000002 0.55999999999999994 2.9391523179536467e-17 
0.051181863050410108 0.61999999999983491 0.1546291831842925 
0.080000000000000002 0.60000000000000009 0.16000000000000006 
0.11356858794277976 0.57999999999999996 0.15261645752532868 
0.13888981900607525 0.56000001111851716 0.13414784591682016 
0.007383542474671329 0.61999999999999977 0.11356858794277976 
0.15462918315268825 0.53999999999406034 0.10881813703143406 
0.15261645752532865 0.53999999999999992 0.046431412057220262 
0.108818137031434 0.53999999999406034 0.0053708168473117456 
0.16 0.51999999999999991 0.080000000000000016 
0 0.59999999999999976 0.080000000000000016 
0.046431412057220296 0.54000000000000004 0.0073835424746713446 
0.021110180993924768 0.56000001111851716 0.025852154083179847 
0.0053708168202224061 0.57999999999900997 0.051181863038718141 
0.13414782799288064 0.52000000184615669 0.021110164513276099 
0.079999999999999988 0.52000000000000002 2.694222958124176e-17 
0.025852046152150015 0.6000000667180323 0.13888971976577161 
0.051181863038718071 0.57999999999901009 0.15462918317977761 
0.079999999999999974 0.55999999999999994 0.16000000000000003 
0.11356858794277976 0.53999999999999992 0.15261645752532868 
0.13888983548672393 0.52000000184615658 0.13414782799288066 
0.007383542474671329 0.57999999999999985 0.11356858794277976 
0.15462918299015238 0.49999999996436267 0.10881813745234674 
0.15261645752532865 0.49999999999999983 0.046431412057220296 
0.10881813745234667 0.49999999996436267 0.0053708170098476261 
0.16 0.47999999999999993 0.080000000000000029 
0 0.55999999999999983 0.080000000000000016 
0.046431412057220234 0.5 0.0073835424746713759 
0.021110164513276065 0.52000000184615669 0.025852172007119371 
0.0053708168473117299 0.53999999999406034 0.051181862968566007 
0.13414782539305578 0.48000000026611594 0.021110162122797989 
0.080000000000000002 0.47999999999999998 2.4492935982947059e-17 
0.025852154083179806 0.56000001111851705 0.13888981900607525 
0.051181862968565972 0.53999999999406034 0.15462918315268828 
0.079999999999999974 0.51999999999999991 0.16000000000000003 
0.11356858794277976 0.49999999999999983 0.15261645752532868 
0.13888983787720202 0.48000000026611594 0.13414782539305584 
0.0073835424746713446 0.53999999999999992 0.1135685879427798 
0.15462918201493717 0.45999999978617639 0.10881813997782265 
0.15261645752532865 0.45999999999999996 0.046431412057220262 
0.10881813997782265 0.45999999978617639 0.0053708179850628628 
0.16 0.43999999999999995 0.080000000000000029 
0.13414782728474492 0.43999999979489185 0.021110163862161826 
0 0.51999999999999991 0.080000000000000016 
0.046431412057220262 0.45999999999999996 0.0073835424746713446 
0.080000000000000016 0.44000000000000006 2.2043642384652358e-17 
0.021110162122797958 0.48000000026611594 0.025852174606944223 
0.0053708170098475949 0.49999999996436267 0.051181862547653334 
0.025852172007119333 0.52000000184615658 0.13888983548672393 
0.051181862547653292 0.49999999996436267 0.15462918299015244 
0.079999999999999974 0.47999999999999993 0.16000000000000003 
0.11356858794277969 0.45999999999999996 0.15261645752532871 
0.13888983613783817 0.43999999979489185 0.13414782728474495 
0.007383542474671329 0.49999999999999983 0.11356858794277976 
0.15462917616364386 0.41999999871705862 0.10881815513067779 
0.15261645752532865 0.41999999999999998 0.046431412057220296 
0.10881815513067777 0.41999999871705873 0.0053708238363561582 
0.16 0.40000000000000002 0.080000000000000016 
0.13414784154998419 0.39999999846905043 0.021110176978718954 
0 0.47999999999999987 0.080000000000000016 
0.021110163862161808 0.43999999979489185 0.025852172715255094 
0.046431412057220262 0.4200000000000001 0.0073835424746713446 
0.080000000000000002 0.40000000000000002 1.9594348786357651e-17 
0.0053708179850628316 0.45999999978617639 0.051181860022177388 
0.02585217460694416 0.48000000026611594 0.13888983787720202 
0.051181860022177353 0.45999999978617639 0.15462918201493717 
0.079999999999999974 0.43999999999999995 0.16000000000000003 
0.11356858794277976 0.41999999999999998 0.15261645752532865 
0.13888982302128103 0.39999999846905043 0.13414784154998421 
0.007383542474671329 0.45999999999999996 0.11356858794277974 
0.15462914105581951 0.37999999230235199 0.1088182460477836 
0.15261645752532865 0.38000000000000006 0.046431412057220255 
0.10881824604778353 0.37999999230235199 0.0053708589441804734 
0.16000000000000003 0.36000000000000004 0.080000000000000016 
0.1341479276272034 0.35999999076425232 0.021110256124863797 
0 0.44 0.080000000000000016 
0.005370823836356127 0.41999999871705862 0.051181844869322243 
0.021110176978718909 0.39999999846905043 0.025852158450015844 
0.046431412057220234 0.38000000000000006 0.0073835424746713603 
0.079999999999999988 0.35999999999999999 1.7145055188062944e-17 
0.025852172715255081 0.43999999979489185 0.1388898361378382 
0.051181844869322222 0.41999999871705862 0.15462917616364388 
0.079999999999999974 0.40000000000000002 0.16000000000000003 
0.11356858794277976 0.38000000000000006 0.15261645752532865 
0.1388897438751362 0.35999999076425238 0.13414792762720343 
0.007383542474671329 0.41999999999999998 0.11356858794277974 
0.15462893040654752 0.33999995381411158 0.10881879154952005 
0.15261645752532865 0.34000000000000008 0.046431412057220289 
0.10881879154952 0.33999995381411158 0.0053710695934524938 
0.16000000000000006 0.32000000000000006 0.080000000000000029 
0.13414844416906357 0.31999994457717212 0.021110731078830648 
0 0.39999999999999997 0.080000000000000002 
0.0053708589441804578 0.37999999230235187 0.051181753952216504 
0.021110256124863766 0.35999999076425232 0.025852072372796638 
0.046431412057220262 0.33999999999999991 0.0073835424746713446 
0.080000000000000002 0.31999999999999995 1.4695761589768237e-17 
0.025852158450015799 0.39999999846905043 0.13888982302128106 
0.051181753952216413 0.37999999230235199 0.15462914105581954 
0.079999999999999974 0.36000000000000004 0.16000000000000003 
0.13888926892116937 0.31999994457717224 0.13414844416906357 
0.11356858794277976 0.34000000000000008 0.15261645752532865 
0.007383542474671329 0.38000000000000006 0.11356858794277974 
0.15462766642718165 0.29999972288466925 0.10882206452760292 
0.15261645752532865 0.30000000000000004 0.046431412057220234 
0.10882206452760289 0.2999997228846692 0.0053723335728183691 
0.16 0.27999999999999997 0.080000000000000016 
0.13415154334623206 0.27999966746164284 0.021113580910186527 
0 0.36000000000000004 0.080000000000000016 
0.0053710695934524625 0.33999995381411152 0.051181208450480006 
0.021110731078830641 0.31999994457717212 0.025851555830936415 
0.046431412057220262 0.29999999999999999 0.0073835424746713446 
0.080000000000000016 0.27999999999999997 1.2246467991473533e-17 
0.025852072372796624 0.35999999076425232 0.13888974387513625 
0.13888641908981347 0.27999966746164284 0.13415154334623208 
0.051181208450479958 0.33999995381411158 0.15462893040654752 
0.079999999999999988 0.32000000000000006 0.16000000000000006 
0.11356858794277976 0.30000000000000004 0.15261645752532865 
0.0073835424746713446 0.34000000000000008 0.11356858794277978 
0.15462007953668955 0.25999833730801547 0.10884170123169104 
0.15261645752532865 0.26000000000000001 0.046431412057220275 
0.10884170123169098 0.25999833730801547 0.005379920463310468 
0.16 0.23999999999999999 0.080000000000000016 
0.13417013526147334 0.23999800476962524 0.021130683325235725 
0.15379576614269994 0.21993470963234363 0.049110116552308888 
0 0.31999999999999995 0.080000000000000002 
0.0053723335728183691 0.2999997228846692 0.051177935472397067 
0.02111358091018652 0.27999966746164284 0.025848456653767948 
0.080000000000000002 0.23999999999999996 9.797174393178824e-18 
0.046431412057220262 0.25999999999999995 0.0073835424746713446 
0.025851555830936401 0.31999994457717212 0.13888926892116937 
0.13886931667476429 0.23999800476962518 0.13417013526147337 
0.11356858794277969 0.26000000000000001 0.15261645752532871 
0.051177935472397088 0.29999972288466925 0.15462766642718165 
0.079999999999999974 0.27999999999999997 0.16000000000000003 
0.007383542474671329 0.29999999999999999 0.11356858794277974 
0.15457444970543413 0.21999002384809285 0.10895947946928045 
0.10895947946928043 0.21999002384809285 0.0054255502945658824 
0.16000000000000003 0.20000000000000001 0.080000000000000016 
0.134848271248142 0.19986550756939833 0.021761978561336423 
0.15292911920904617 0.17999822232750046 0.047116211115616022 
0 0.28000000000000003 0.080000000000000016 
0.0053799204633104523 0.25999833730801547 0.051158298768309032 
0.021130683325235714 0.23999800476962513 0.025829864738526654 
0.10966462264952254 0.17994014308855691 0.0057032291209003346 
0.079999999999999988 0.19999999999999996 7.3478807948841168e-18 
0.049110116552309305 0.21993470963234354 0.006204233857299909 
0.025848456653767924 0.27999966746164284 0.13888641908981347 
0.13823802143866357 0.19986550756939842 0.134848271248142 
0.11088988344769005 0.21993470963234363 0.15379576614270041 
0.079999999999999974 0.23999999999999999 0.16 
0.051158298768308977 0.25999833730801547 0.15462007953668955 
0.0073835424746713446 0.25999999999999995 0.11356858794277978 
0.15429677087909965 0.17994014308855691 0.10966462264952258 
0.16 0.16 0.080000000000000016 
0.13562704231088316 0.15927613424733131 0.02250537274020107 
0.15388678858384405 0.14026414529224962 0.049328474560818888 
0.10956939625817365 0.14037598482122618 0.0056652786046311621 
0 0.23999999999999994 0.080000000000000002 
0.0054255502945658824 0.2199900238480928 0.051040520530719564 
0.02176197856133643 0.19986550756939833 0.025151728751857973 
0.079999999999999974 0.15999999999999998 4.898587196589412e-18 
0.047116211115615737 0.17999822232750046 0.0070708807909539689 
0.13749462725979894 0.15927613424733136 0.13562704231088316 
0.13656854249492381 0.1152132574394641 0.023431457505076213 
0.14928194668137706 0.080000000000000016 0.040000052083863737 
0.025829864738526637 0.23999800476962513 0.13886931667476429 
0.11288378888438434 0.17999822232750051 0.15292911920904598 
0.079999999999999974 0.20000000000000001 0.16000000000000003 
0.051040520530719578 0.2199900238480928 0.15457444970543416 
0.13656854249492378 0.11521325743946417 0.13656854249492381 
0.0062042338572994866 0.2199347096323436 0.11088988344768973 
0.15433472139536886 0.14037598482122618 0.10956939625817365 
0.16 0.080000000000000002 0.080000000000000002 
0.16 0.12 0.080000000000000016 
0.15548633583562316 0.10711784845213805 0.10649175536108382 
0.1554072035559762 0.10709548006670218 0.05328383163948152 
0.080000000000000002 0.12000000000000001 2.4492935982947064e-18 
0.10649175536108382 0.10711784845213805 0.0045136641643768287 
0.11999994791613627 0.080000000000000002 0.010718053318622954 
0 0.20000000000000001 0.080000000000000002 
0.0057032291209003346 0.17994014308855691 0.050335377350477432 
0.02250537274020107 0.15927613424733131 0.024372957689116834 
0.049328474560818882 0.14026414529224962 0.0061132114161559564 
0.080000000000000002 0.080000000000000016 0 
0.11067152543918106 0.14026414529224962 0.15388678858384405 
0.11730030421311399 0.080000000000000002 0.045148722689676679 
0.12884052680775934 0.080000000000000002 0.068561430653603123 
0.14928194668137704 0.080000000000000002 0.11999994791613627 
0.12949389260074134 0.080000000000000002 0.093979942939741115 
0.025151728751857998 0.19986550756939828 0.13823802143866357 
0.079999999999999974 0.16 0.16 
0.050335377350477419 0.17994014308855685 0.15429677087909965 
0.10671616836051846 0.10709548006670218 0.1554072035559762 
0.11999994791613625 0.080000000000000002 0.14928194668137706 
0.0070708807909538752 0.17999822232750046 0.11288378888438404 
0.053283831639481527 0.10709548006670218 0.0045927964440237836 
0.094818359476046346 0.080000000000000002 0.034497420765756667 
0.067521506253614694 0.080000000000000016 0.031402715647237178 
0.079999999999999974 0.12 0.16 
0 0.16 0.079999999999999974 
0.0056652786046311621 0.14037598482122618 0.050430603741826362 
0.023431457505076199 0.1152132574394641 0.023431457505076192 
0.040000052083863737 0.080000000000000002 0.010718053318622932 
0.11194114642962169 0.080000000000000002 0.087970741031693139 
0.099451386368653916 0.080000000000000002 0.066902919186101473 
0.11328223602811491 0.080000000000000002 0.11484490398817723 
0.092729006833867728 0.080000000000000002 0.12835837885318863 
0.024372957689116834 0.15927613424733131 0.13749462725979891 
0.050430603741826362 0.14037598482122624 0.15433472139536886 
0.079999999999999974 0.080000000000000002 0.16 
0.0061132114161559564 0.14026414529224962 0.11067152543918107 
0.044419916254774768 0.080000000000000002 0.048263854190558106 
0.074320295182289414 0.080000000000000002 0.063133324114340833 
0.053508244638916111 0.10711784845213805 0.15548633583562313 
0.0045136641643768287 0.10711784845213805 0.05350824463891616 
0 0.12 0.079999999999999974 
0.01071805331862296 0.079999999999999988 0.040000052083863695 
0.08407594551321193 0.080000000000000002 0.095864734420133213 
0.066907104778969481 0.080000000000000002 0.12606720081799463 
0.023431457505076168 0.1152132574394641 0.13656854249492376 
0.0045927964440237836 0.10709548006670218 0.10671616836051848 
0.040000052083863688 0.080000000000000002 0.14928194668137701 
0.030355818184578425 0.080000000000000002 0.069529274914519171 
0.055563777819786914 0.080000000000000002 0.077990595020314274 
0.042608508468419883 0.080000000000000002 0.11590003831240601 
0 0.080000000000000002 0.079999999999999974 
0.054712483430240474 0.080000000000000002 0.10267906197825417 
0.010718053318622925 0.080000000000000016 0.11999994791613625 
0.031254981866459516 0.080000000000000002 0.094631409938351771
0 2 1 
4 0 1 
4 5 0 
3 0 5 
4 6 5 
4 1 7 
4 7 6 
6 7 8 
0 10 2 
10 3 9 
10 0 3 
10 11 2 
10 9 11 
9 12 11 
13 6 8 
14 2 11 
15 8 7 
13 8 18 
16 18 17 
13 18 16 
7 1 19 
15 7 19 
20 1 2 
20 19 1 
20 2 21 
14 21 2 
3 22 9 
3 5 22 
23 12 9 
23 9 22 
13 24 6 
13 16 24 
5 6 24 
5 24 22 
23 22 25 
23 26 12 
23 25 26 
27 18 8 
27 8 28 
15 28 8 
11 12 29 
14 11 29 
30 12 26 
30 29 12 
31 24 16 
31 22 24 
32 25 22 
32 22 31 
16 17 33 
33 31 16 
33 34 31 
32 31 34 
14 35 21 
14 29 35 
20 21 36 
20 36 19 
15 37 28 
15 19 37 
36 21 38 
35 38 21 
33 17 39 
33 39 34 
40 39 17 
17 18 41 
40 17 41 
27 41 18 
37 19 42 
36 42 19 
43 32 34 
43 25 32 
25 44 26 
43 44 25 
34 39 45 
43 45 44 
43 34 45 
46 26 44 
46 47 26 
30 26 47 
27 28 48 
27 48 41 
48 28 49 
37 49 28 
35 29 50 
30 47 51 
30 51 29 
51 50 29 
52 45 39 
38 35 53 
50 53 35 
36 38 54 
42 36 54 
49 37 55 
42 55 37 
54 38 56 
53 56 38 
40 57 39 
52 39 57 
40 58 57 
40 41 58 
58 41 59 
48 59 41 
54 60 42 
55 42 60 
44 45 61 
46 44 61 
52 61 45 
48 49 62 
59 48 62 
46 63 47 
46 61 63 
63 64 47 
51 47 64 
51 64 65 
50 51 65 
65 66 50 
53 50 66 
62 49 67 
55 67 49 
52 57 68 
52 68 61 
56 53 69 
66 69 53 
56 70 54 
60 54 70 
67 55 71 
60 71 55 
70 56 72 
69 72 56 
58 73 57 
68 57 73 
73 58 74 
59 74 58 
62 75 59 
74 59 75 
70 76 60 
71 60 76 
63 61 77 
68 77 61 
67 78 62 
75 62 78 
78 67 79 
71 79 67 
64 63 80 
77 80 63 
80 81 64 
65 64 81 
81 82 65 
66 65 82 
82 83 66 
69 66 83 
68 73 84 
77 68 84 
72 69 85 
83 85 69 
72 86 70 
76 70 86 
79 71 87 
76 87 71 
86 72 88 
85 88 72 
74 89 73 
84 73 89 
89 74 90 
75 90 74 
78 91 75 
90 75 91 
86 92 76 
87 76 92 
84 93 77 
80 77 93 
79 94 78 
91 78 94 
94 79 95 
87 95 79 
81 80 96 
93 96 80 
96 97 81 
82 81 97 
97 98 82 
83 82 98 
98 99 83 
85 83 99 
89 100 84 
93 84 100 
88 85 101 
99 101 85 
88 102 86 
92 86 102 
95 87 103 
92 103 87 
102 88 104 
101 104 88 
90 105 89 
100 89 105 
105 90 106 
91 106 90 
94 107 91 
106 91 107 
102 108 92 
103 92 108 
100 109 93 
96 93 109 
95 110 94 
107 94 110 
110 95 111 
103 111 95 
97 96 112 
109 112 96 
112 113 97 
98 97 113 
113 114 98 
99 98 114 
114 115 99 
101 99 115 
105 116 100 
109 100 116 
104 101 117 
115 117 101 
104 118 102 
108 102 118 
111 103 119 
108 119 103 
118 104 120 
117 120 104 
106 121 105 
116 105 121 
121 106 122 
107 122 106 
110 123 107 
122 107 123 
111 124 110 
123 110 124 
118 125 108 
119 108 125 
116 126 109 
112 109 126 
124 111 127 
119 127 111 
113 112 128 
126 128 112 
128 129 113 
114 113 129 
129 130 114 
115 114 130 
130 131 115 
117 115 131 
121 132 116 
126 116 132 
120 117 133 
131 133 117 
120 134 118 
125 118 134 
127 119 135 
125 135 119 
134 120 136 
133 136 120 
122 137 121 
132 121 137 
127 138 124 
137 122 139 
123 139 122 
140 124 138 
124 140 123 
139 123 140 
134 141 125 
135 125 141 
132 142 126 
128 126 142 
138 127 143 
135 143 127 
129 128 144 
142 144 128 
144 145 129 
130 129 145 
145 146 130 
131 130 146 
146 147 131 
133 131 147 
137 148 132 
142 132 148 
136 133 149 
147 149 133 
136 150 134 
141 134 150 
143 135 151 
141 151 135 
150 136 152 
149 152 136 
139 153 137 
148 137 153 
143 154 138 
155 138 154 
138 155 140 
153 139 156 
140 156 139 
156 140 155 
150 157 141 
151 141 157 
154 143 158 
151 158 143 
148 159 142 
144 142 159 
145 144 160 
159 160 144 
160 161 145 
146 145 161 
161 162 146 
147 146 162 
162 163 147 
149 147 163 
153 164 148 
159 148 164 
152 149 165 
163 165 149 
152 166 150 
157 150 166 
158 151 167 
157 167 151 
166 152 168 
165 168 152 
156 169 153 
164 153 169 
158 170 154 
171 154 170 
154 171 155 
169 156 172 
155 172 156 
172 155 171 
166 173 157 
167 157 173 
170 158 174 
167 174 158 
164 175 159 
160 159 175 
161 160 176 
175 176 160 
176 177 161 
162 161 177 
177 178 162 
163 162 178 
178 179 163 
165 163 179 
169 180 164 
175 164 180 
168 165 181 
179 181 165 
168 182 166 
173 166 182 
174 167 183 
173 183 167 
182 168 184 
181 184 168 
182 185 173 
183 173 185 
172 186 169 
180 169 186 
174 187 170 
187 174 188 
183 188 174 
189 170 187 
170 189 171 
186 172 190 
171 190 172 
190 171 189 
180 191 175 
176 175 191 
177 176 192 
191 192 176 
192 193 177 
178 177 193 
193 194 178 
179 178 194 
194 195 179 
181 179 195 
186 196 180 
191 180 196 
184 181 197 
195 197 181 
184 198 182 
185 182 198 
188 183 199 
185 199 183 
198 184 200 
197 200 184 
198 201 185 
199 185 201 
190 202 186 
196 186 202 
187 203 189 
188 204 187 
203 187 204 
204 188 205 
199 205 188 
202 190 206 
189 206 190 
206 189 203 
196 207 191 
192 191 207 
193 192 208 
207 208 192 
208 209 193 
194 193 209 
209 210 194 
195 194 210 
210 211 195 
197 195 211 
202 212 196 
207 196 212 
200 197 213 
211 213 197 
200 214 198 
201 198 214 
205 199 215 
201 215 199 
214 200 216 
213 216 200 
214 217 201 
215 201 217 
206 218 202 
212 202 218 
218 206 219 
203 219 206 
204 220 203 
219 203 220 
205 221 204 
220 204 221 
221 205 222 
215 222 205 
212 223 207 
208 207 223 
209 208 224 
223 224 208 
224 225 209 
210 209 225 
225 226 210 
211 210 226 
226 227 211 
213 211 227 
218 228 212 
223 212 228 
216 213 229 
227 229 213 
216 230 214 
217 214 230 
222 215 231 
217 231 215 
230 216 232 
229 232 216 
230 233 217 
231 217 233 
219 234 218 
228 218 234 
234 219 235 
220 235 219 
221 236 220 
235 220 236 
222 237 221 
236 221 237 
237 222 238 
231 238 222 
228 239 223 
224 223 239 
225 224 240 
239 240 224 
240 241 225 
226 225 241 
229 227 242 
241 243 226 
227 226 243 
243 242 227 
234 244 228 
239 228 244 
232 229 245 
242 245 229 
232 246 230 
233 230 246 
238 231 247 
233 247 231 
246 232 248 
245 248 232 
246 249 233 
247 233 249 
235 250 234 
244 234 250 
250 235 251 
236 251 235 
237 252 236 
251 236 252 
238 253 237 
252 237 253 
253 238 254 
247 254 238 
244 255 239 
240 239 255 
245 242 256 
241 240 257 
255 257 240 
257 258 241 
243 241 258 
258 259 243 
242 243 259 
259 256 242 
250 260 244 
255 244 260 
248 245 261 
256 261 245 
248 262 246 
249 246 262 
254 247 263 
249 263 247 
262 248 264 
261 264 248 
262 265 249 
263 249 265 
264 266 262 
265 262 266 
251 267 250 
260 250 267 
267 251 268 
252 268 251 
253 269 252 
268 252 269 
263 270 254 
271 254 270 
254 271 253 
269 253 271 
260 272 255 
257 255 272 
261 256 273 
256 259 274 
274 273 256 
258 257 275 
272 275 257 
275 276 258 
259 258 276 
276 274 259 
267 277 260 
272 260 277 
264 261 278 
273 278 261 
270 263 279 
265 279 263 
266 264 280 
278 280 264 
266 281 265 
279 265 281 
280 282 266 
281 266 282 
268 283 267 
277 267 283 
283 268 284 
269 284 268 
271 285 269 
284 269 285 
281 286 279 
279 287 270 
287 279 286 
288 270 287 
270 288 271 
285 271 288 
277 289 272 
275 272 289 
278 273 290 
273 274 291 
291 290 273 
274 276 292 
292 291 274 
293 292 276 
276 275 293 
289 293 275 
283 294 277 
289 277 294 
280 278 295 
290 295 278 
282 280 296 
295 296 280 
282 297 281 
286 281 297 
296 298 282 
297 282 298 
297 299 286 
284 300 283 
294 283 300 
300 284 301 
285 301 284 
288 302 285 
301 285 302 
286 303 287 
303 286 299 
304 287 303 
287 304 288 
302 288 304 
295 290 305 
298 306 297 
299 297 306 
294 308 289 
293 289 308 
290 291 309 
309 305 290 
291 292 310 
310 309 291 
311 310 292 
292 293 311 
308 311 293 
300 313 294 
308 294 313 
296 295 314 
305 314 295 
314 305 312 
298 296 316 
314 316 296 
317 315 316 
317 316 314 
317 314 312 
318 316 315 
318 315 307 
318 298 316 
318 307 306 
318 306 298 
299 319 303 
320 319 299 
320 299 306 
306 307 321 
320 306 321 
301 322 300 
313 300 322 
322 301 323 
302 323 301 
304 324 302 
323 302 324 
325 303 319 
303 325 304 
324 304 325 
320 321 326 
320 326 319 
305 309 327 
327 312 305 
328 321 307 
329 307 315 
328 307 329 
317 330 315 
317 312 330 
331 315 330 
329 315 331 
313 332 308 
311 308 332 
309 310 333 
333 327 309 
334 333 310 
310 311 334 
332 334 311 
335 312 327 
312 336 330 
335 336 312 
322 337 313 
332 313 337 
338 319 326 
338 325 319 
339 326 321 
328 339 321 
340 326 339 
327 333 341 