Variables=x,y,z
Zone n=868, e=3904, f=fepoint, et=tetrahedron
0.12884052680775934 0.88 0.068561430653603192 
0.14928194668137706 0.88000000000000012 0.040000052083863757 
0.16 0.88 0.080000000000000043 
0.11194114642962172 0.88 0.087970741031693195 
0.11730030421311399 0.88 0.045148722689676721 
0.099451386368653916 0.88 0.066902919186101528 
0.094818359476046346 0.88 0.03449742076575673 
0.11999994791613625 0.87999999999999989 0.010718053318622975 
0.12262532730438332 0.8646317388740542 0.074576927611828228 
0.080000000000000002 0.88 6.252776074688882e-17 
0.11328223602811494 0.88 0.11484490398817725 
0.12949389260074134 0.88 0.093979942939741143 
0.14928194668137704 0.87999999999999989 0.11999994791613633 
0.11999994791613626 0.88000000000000012 0.14928194668137712 
0.06752150625361468 0.88 0.031402715647237255 
0.15582029522045979 0.85260443714320655 0.10552024358587359 
0.10552024358587303 0.85260443714320655 0.0041797047795400673 
0.044419916254774747 0.88 0.048263854190558168 
0.010718053318622939 0.88 0.040000052083863771 
0.040000052083863716 0.88000000000000012 0.010718053318622994 
0.13591323801788435 0.84370209957488762 0.022783657803426432 
0.15532498840320269 0.85263582524216119 0.053052901416713247 
0.13905275831723427 0.84673104508665109 0.088280070384893064 
0.16000000000000003 0.84000000000000008 0.080000000000000043 
0.10962821964163727 0.8631410709596693 0.13175357289905859 
0.084075945513211944 0.88 0.095864734420133255 
0.092729006833867714 0.88 0.12835837885318863 
0.074320295182289442 0.88 0.063133324114340875 
0.093214344529132728 0.85805972847450995 0.084897576271746544 
0.11357131302539329 0.8500372529668011 0.10173947432037191 
0.066907104778969495 0.88 0.12606720081799472 
0.079999999999999974 0.88 0.16000000000000006 
0.053052901416713191 0.85263582524216108 0.0046750115967973413 
0.096769677060808607 0.85300081150066143 0.039874535973457748 
0.12026397209661584 0.82427941937333526 0.041718315949611152 
0.11786733566920879 0.83663924313017601 0.074325321830207652 
0.080000000000000016 0.84000000000000008 4.653657836759943e-17 
0.097935246077520036 0.85013105587178006 0.11795051792716696 
0.13156833588034472 0.84605511477188422 0.11402895195570631 
0.13721634219657358 0.84370209957488773 0.13591323801788444 
0.10588995597102202 0.84197249143797259 0.13217021609728097 
0.10694709858328678 0.8526358252421613 0.15532498840320275 
0.047630324515509477 0.85378530467869584 0.035235180515167434 
0.10918796929737214 0.82540518198218005 0.11658581678832758 
0.072008644670557717 0.84140301887048585 0.059263051261177722 
0.055563777819786948 0.88 0.077990595020314343 
0.054712483430240509 0.88 0.10267906197825423 
0.042207747614305742 0.85493478411523038 0.065795349433537778 
0.030355818184578394 0.88 0.06952927491451924 
0.031254981866459516 0.88 0.094631409938351813 
0.12941764677872625 0.81862731128352606 0.09907092363494438 
0.15450377664264772 0.81947608969211483 0.10914081786742547 
0.15376959517913308 0.8194770247173615 0.0490476684705849 
0.10914081786742538 0.81947608969211483 0.0054962233573523098 
0.16 0.79999999999999993 0.080000000000000043 
0 0.88 0.080000000000000029 
0.0041797047795401453 0.85260443714320655 0.054479756414126647 
0.023851985485828956 0.83720543690367244 0.058327265783056401 
0.022783657803426387 0.84370209957488773 0.024086761982115682 
0.13515147704867658 0.80052422348711993 0.022049032973130694 
0.13844018828170201 0.82006552793588994 0.073925339455904779 
0.12408791811853441 0.80486821259858399 0.045865992595779156 
0.1043315169148047 0.81777853287493707 0.089001029402463031 
0.088030017113899545 0.83006892597403648 0.075123932278330835 
0.075044678243718313 0.85006552793589008 0.12907839776564575 
0.070538493423587395 0.86013105587178007 0.10342912570242424 
0.064286125515619838 0.84759844792939543 0.084987269430066056 
0.086364503416933955 0.84026211174356025 0.10417918942659432 
0.042608508468419896 0.88 0.11590003831240607 
0.040000052083863723 0.88000000000000012 0.14928194668137709 
0.01071805331862294 0.88 0.11999994791613633 
0.049565720112917121 0.84688381375538901 0.1331473699811099 
0.054479756414127202 0.85260443714320666 0.15582029522046009 
0.079999999999999974 0.84000000000000008 0.16000000000000009 
0.11731568327902693 0.79025940047980614 0.094406241057936005 
0.1017735294626809 0.80486774508596048 0.024090270039162847 
0.049047668470584851 0.8194770247173615 0.00623040482086697 
0.078199212335700041 0.82070790772466939 0.031833580409546217 
0.096729687714432383 0.8153883217904363 0.058275267070068283 
0.080000000000000002 0.79999999999999993 4.408728476930471e-17 
0.08318225170846702 0.82013105587178015 0.13208959471329704 
0.13795096702686932 0.80052422348711993 0.13515147704867667 
0.096956345178613346 0.80145411655741994 0.11198354990232043 
0.11095233152941512 0.8194770247173615 0.15376959517913311 
0.047904893049969283 0.82039316761534009 0.040274940387471272 
0.075979131179499046 0.81526075611168303 0.11074743635281066 
0.062802766744467428 0.82149580777236753 0.072462607989221536 
0.039995578973837077 0.82986956823046076 0.083326844676517006 
0.038341181209832702 0.8523364144806439 0.10677336029896711 
0.01917059060491633 0.84616820724032193 0.093386680149483398 
0.0046750115967972945 0.85263582524216108 0.10694709858328684 
0.094406241057936047 0.79025940047980614 0.042684316720973517 
0.15463136655805354 0.7799945774724919 0.10881248211587206 
0.13597243323210892 0.76512970023990257 0.10161218900259932 
0.13496607040217765 0.78512970023990292 0.070418826557578015 
0.1182891297023885 0.77512970023990291 0.047223196662734654 
0.15261645752532865 0.77999999999999992 0.046431412057220268 
0.10881248211587197 0.7799945774724919 0.0053686334419464745 
0.15999999999999998 0.7599999999999999 0.080000000000000016 
0 0.84000000000000008 0.080000000000000043 
0.033268151103401263 0.81373241869173929 0.061960512362560297 
0.005496223357352263 0.81947608969211483 0.050859182132574669 
0.022049032973130649 0.80052422348711993 0.024848522951323455 
0.13431547584027226 0.76008646682660186 0.021264754327194695 
0.10586096216848148 0.79025940047980614 0.068545278889454761 
0.080000000000000362 0.80052422348712027 0.080000000000000224 
0.10798621661605452 0.76269950877617287 0.090806094501299742 
0.088478172589306736 0.78086171693493156 0.095991774951160291 
0.045427380553205839 0.8246728289612878 0.11891531065958223 
0.024086761982115634 0.84370209957488773 0.13721634219657367 
0.046431412057220234 0.77999999999999992 0.0073835424746713915 
0.10161218900259936 0.7651297002399029 0.024027566767891299 
0.11630822876266411 0.7500072055688829 0.063215706028610069 
0.11256318285496339 0.74500360278444122 0.034293261421709582 
0.065593758942064165 0.79025940047980592 0.11731568327902697 
0.058226470537319386 0.80486774508596048 0.13590972996083719 
0.050859182132574593 0.81947608969211483 0.15450377664264778 
0.079999999999999974 0.79999999999999993 0.16000000000000003 
0.11277680333726543 0.7751297002399028 0.11828912970238856 
0.11356858794277976 0.77999999999999992 0.15261645752532871 
0.12570673857829034 0.74500360278444111 0.1125631828549635 
0.13873524567280535 0.76008646682660175 0.13431547584027231 
0.070418826557578015 0.78512970023990303 0.025033929597822573 
0.068545278889454817 0.79025940047980614 0.054139037831518855 
0.079999999999999988 0.7599999999999999 4.1637991171010003e-17 
0.047223196662734536 0.7751297002399028 0.0417108702976118 
0.089581173442421974 0.78512970023990303 0.13496607040217781 
0.096784293971389851 0.75000720556888301 0.11630822876266438 
0.042684316720973572 0.79025940047980614 0.065593758942064193 
0.051844780362127328 0.80272950380117525 0.089223858154824282 
0.065922390181063731 0.78149941055680916 0.084611929077412218 
0.023689560724254283 0.80493478411523023 0.098447716309648339 
0.0062304048208669232 0.8194770247173615 0.11095233152941518 
0.090806094501299742 0.76269950877617299 0.05201378338394573 
0.15462918318519125 0.73999999999999921 0.10881813694726236 
0.13546870597392749 0.745003602784441 0.086016921487936354 
0.15261645752532865 0.73999999999999999 0.046431412057220317 
0.10881813694726232 0.73999999999999921 0.0053708168148087843 
0.16 0.71999999999999997 0.080000000000000043 
0 0.79999999999999993 0.080000000000000029 
0.0053686334419464276 0.7799945774724919 0.051187517884128064 
0.021264754327194647 0.76008646682660175 0.02568452415972778 
0.13417579682853722 0.72001441113776599 0.021135893466450614 
0.12376435370696025 0.72500360278444087 0.052356750843574371 
0.11265040410431988 0.7363533571725267 0.09260758148747901 
0.08000000000000014 0.76026931731244307 0.080000000000000168 
0.098154114381332022 0.73501080835332444 0.071607853014305098 
0.088392146985694878 0.73501080835332455 0.098154114381332244 
0.069193905498700456 0.76269950877617287 0.10798621661605463 
0.03648865070836782 0.78512970023990292 0.11544213561090333 
0.0248485229513234 0.80052422348711993 0.1379509670268694 
0.046431412057220262 0.73999999999999999 0.0073835424746713759 
0.086016921487936313 0.74500360278444133 0.024531294026072487 
0.092607581487478996 0.73635335717252681 0.047349595895680337 
0.10161360271046045 0.72500360278444009 0.024028112611112012 
0.094409068473658236 0.71000720556888053 0.042685408407414936 
0.080000000000000002 0.71999999999999997 3.9188697572715302e-17 
0.058387810997400744 0.76512970023990279 0.13597243323210911 
0.051187517884128036 0.7799945774724919 0.15463136655805365 
0.079999999999999946 0.7599999999999999 0.16000000000000003 
0.13597188738888807 0.72500360278443976 0.10161360271046045 
0.11731459159258524 0.71000720556888064 0.094409068473658292 
0.10764324915642547 0.72500360278444065 0.12376435370696022 
0.11356858794277969 0.73999999999999999 0.15261645752532874 
0.13886410653354941 0.72001441113776599 0.13417579682853725 
0.024027566767891056 0.76512970023990257 0.058387810997401021 
0.052013783383945598 0.76269950877617287 0.069193905498700595 
0.063215706028609958 0.75000720556888301 0.04369177123733587 
0.034293261421709249 0.745003602784441 0.047436817145036871 
0.052356750843574169 0.72500360278444065 0.036235646293040068 
0.07398307851206358 0.74500360278444133 0.13546870597392779 
0.067392418512521077 0.7363533571725267 0.11265040410431996 
0.043691771237335697 0.75000720556888301 0.096784293971389893 
0.030258108738129435 0.7751297002399028 0.086914973304152182 
0.0073835424746713446 0.77999999999999992 0.11356858794277981 
0.071607853014304931 0.73501080835332455 0.061845885618667995 
0.061845885618667808 0.73501080835332444 0.088392146985695003 
0.15462918318517033 0.6999999999999954 0.10881813694731644 
0.13597188738881524 0.68500360278442674 0.10161360271064972 
0.13496552455895711 0.70500360278444052 0.070420240265439166 
0.11828956363480336 0.69500360278443341 0.047224176438312053 
0.15261645752532865 0.69999999999999996 0.046431412057220275 
0.10881813694731642 0.6999999999999954 0.0053708168148296678 
0.15999999999999998 0.67999999999999994 0.080000000000000043 
0 0.7599999999999999 0.080000000000000016 
0.005370816814808721 0.73999999999999921 0.051181863052737753 
0.021135893466450589 0.72001441113776599 0.025824203171462806 
0.13415248724966788 0.68000240185628891 0.021114448931214436 
0.068547238440536562 0.71000720556888064 0.05413816996687839 
0.10586183003312175 0.71000720556888064 0.068547238440536604 
0.079999999999999918 0.72001441113776599 0.080000000000000113 
0.091452761559463469 0.71000720556888064 0.10586183003312179 
0.04743681714503651 0.74500360278444133 0.12570673857829057 
0.025684524159727735 0.76008646682660186 0.1387352456728054 
0.047224176438312122 0.69500360278443352 0.041710436365196696 
0.046431412057220234 0.69999999999999996 0.0073835424746713759 
0.070420240265439096 0.70500360278444041 0.025034475441043261 
0.10161360271064963 0.6850036027844264 0.024028112611184944 
0.090806801355324776 0.68250540417665462 0.052014056305592492 
0.11256318285515274 0.66499999999998616 0.034293261421782475 
0.11630822876266447 0.67000000000000004 0.063215706028610014 
0.10798594369440759 0.68250540417665473 0.090806801355324873 
0.079999999999999988 0.67999999999999994 3.6739403974420589e-17 
0.051181863052737676 0.73999999999999921 0.15462918318519128 
0.079999999999999974 0.71999999999999997 0.16000000000000003 
0.089579759734560574 0.7050036027844403 0.13496552455895694 
0.11277582356168792 0.69500360278443352 0.11828956363480334 
0.11356858794277976 0.69999999999999996 0.15261645752532868 
0.13888555106878556 0.68000240185628891 0.13415248724966794 
0.096784293971389684 0.66999999999999993 0.11630822876266429 
0.12570673857821746 0.66499999999998627 0.1125631828551527 
0.024531294026072119 0.745003602784441 0.073983078512063871 
0.04734959589568024 0.73635335717252681 0.067392418512521216 
0.024028112611111711 0.72500360278443998 0.05838639728953985 
0.042685408407414888 0.71000720556888086 0.06559093152634185 
0.058386397289539524 0.72500360278444009 0.13597188738888827 
0.065590931526341725 0.71000720556888053 0.11731459159258531 
0.03623564629303988 0.72500360278444087 0.10764324915642569 
0.0073835424746713134 0.73999999999999999 0.11356858794277973 
0.054138169966878313 0.71000720556888064 0.091452761559463566 
0.15462918318504498 0.65999999999997239 0.10881813694764124 
0.13546870597385488 0.66499999999998638 0.086016921488125564 
0.13597188738859572 0.64499999999994495 0.10161360271121801 
0.15261645752532865 0.65999999999999992 0.046431412057220234 
0.12376435370694508 0.64499999999997226 0.052356750843895128 
0.1088181369476412 0.65999999999997239 0.0053708168149550831 
0.15999999999999995 0.63999999999999979 0.080000000000000029 
0.098154114381332203 0.6549999999999998 0.071607853014305001 
0.063215706028609944 0.66999999999999993 0.043691771237335787 
0.052014056305592533 0.68250540417665473 0.069193198644675089 
0 0.71999999999999997 0.080000000000000029 
0.024028112611185152 0.68500360278442674 0.058386397289350134 
0.0053708168148296365 0.6999999999999954 0.051181863052683588 
0.034293261421782677 0.66499999999998627 0.047436817144847106 
0.021114448931214416 0.68000240185628891 0.025847512750332126 
0.13414860149479155 0.64000040030934935 0.021110875739587934 
0.079999999999999932 0.68000720556888283 0.080000000000000057 
0.069193198644675116 0.68250540417665473 0.10798594369440766 
0.025824203171462782 0.7200144111377661 0.13886410653354947 
0.046431412057220296 0.65999999999999992 0.0073835424746713446 
0.086016921488125481 0.66499999999998616 0.024531294026145362 
0.092607934915059822 0.6562527020882859 0.047349732356723219 
0.10161360271121796 0.64499999999994462 0.024028112611404445 
0.11265026764327687 0.65625270208828601 0.092607934915059892 
0.079999999999999988 0.6399999999999999 3.4290110376125876e-17 
0.094409068474794869 0.62999999999991718 0.042685408407853946 
0.10586183003347051 0.62999999999991718 0.068547238441324418 
0.058386397289350314 0.68500360278442674 0.13597188738881527 
0.051181863052683588 0.6999999999999954 0.15462918318517041 
0.073983078511874287 0.66499999999998627 0.13546870597385477 
0.079999999999999974 0.67999999999999994 0.16000000000000003 
0.11356858794277976 0.65999999999999992 0.15261645752532868 
0.13888912426041211 0.64000040030934935 0.13414860149479158 
0.074015713274056788 0.65656249999995608 0.10566366165332053 
0.10731050154364538 0.64750010007733727 0.12076832194569606 
0.1186153702206368 0.62399760853491815 0.1013069718697632 
0.11783670911590109 0.62500020015467472 0.12522841512872784 
0.079999999999999932 0.63999999999999968 0.079999999999999988 
0.025034475441043251 0.70500360278444052 0.08957975973456081 
0.041710436365196779 0.69500360278443363 0.11277582356168805 
0.007383542474671329 0.69999999999999996 0.11356858794277976 
0.04369177123733578 0.66999999999999993 0.096784293971389893 
0.15462918318429245 0.61999999999983491 0.10881813694958992 
0.13496552455873742 0.62499999999995837 0.07042024026600778 
0.15261645752532871 0.61999999999999988 0.046431412057220373 
0.1182895636383879 0.61499999999971111 0.047224176440023087 
0.1016136027180384 0.60499999999946374 0.024028112614038383 
0.1088181369495899 0.61999999999983491 0.0053708168157075575 
0.16000000000000003 0.60000000000000009 0.080000000000000029 
0.052356750843895204 0.64499999999997248 0.036235646293054966 
0.066178375421947572 0.64249999999998597 0.058117823146527484 
0.047349732356723136 0.65625270208828601 0.067392065084940167 
0.024531294026145595 0.66499999999998627 0.073983078511874162 
0 0.67999999999999994 0.080000000000000016 
0.024028112611404577 0.64499999999994495 0.058386397288781845 
0.0053708168149550518 0.65999999999997239 0.051181863052358799 
0.021110875739587896 0.64000040030934935 0.025851398505208477 
0.046431412057220262 0.61999999999999988 0.0073835424746713603 
0.13414795384784997 0.6000000667180323 0.021110280234228427 
0.051247132576723871 0.64312499999991224 0.095019094543976737 
0.047436817144847342 0.66499999999998638 0.12570673857821757 
0.025847512750332095 0.68000240185628891 0.13888555106878561 
0.070420240266007725 0.62499999999995859 0.025034475441262822 
0.042685408407853738 0.62999999999991729 0.065590931525205259 
0.096091008591503213 0.62249999999960781 0.089941929278496369 
0.073211562390906926 0.61624999999982444 0.055939303524417394 
0.080000000000000016 0.59999999999999998 3.1840816777831175e-17 
0.092085517935216035 0.60124999999995854 0.048069573520413432 
0.08807615376145321 0.58312500011437418 0.030309725748333415 
0.11208264570763442 0.60526291129598775 0.095143958038732726 
0.11630822876266422 0.58999999999999975 0.063215706028610208 
0.13546870597122085 0.58499999999950481 0.086016921494945955 
0.08538368624163202 0.63749999999999307 0.12588846736825954 
0.058386397288781935 0.64499999999994517 0.13597188738859581 
0.051181863052358792 0.65999999999997239 0.15462918318504498 
0.07999999999999996 0.63999999999999979 0.16 
0.11356858794277969 0.62 0.15261645752532871 
0.11648914982215733 0.60404169646888439 0.12132827340595556 
0.13413893763852922 0.59798639393760122 0.10355779100746063 
0.13888971976577158 0.60000006671803241 0.13414795384785 
0.065590931525204954 0.6299999999999174 0.11731459159214634 
0.095356797419897957 0.6094272983969844 0.11770782034888927 
0.058802493916111975 0.61624999999982455 0.093253895116563582 
0.0073835424746713603 0.65999999999999992 0.11356858794277983 
0.029315337525697809 0.65156249999995608 0.10429384124337833 
0.15462918317977756 0.57999999999901009 0.1088181369612819 
0.15261645752532865 0.57999999999999996 0.046431412057220234 
0.12522803733974228 0.57500000555925856 0.042162943511267412 
0.1088181369612819 0.57999999999901009 0.0053708168202224373 
0.16 0.55999999999999994 0.080000000000000029 
0.047224176440022921 0.614999999999711 0.041710436361612313 
0.025034475441262687 0.62499999999995859 0.089579759733992334 
0 0.63999999999999979 0.080000000000000016 
0.046431412057220234 0.57999999999999985 0.0073835424746713759 
0.024028112614038116 0.60499999999946352 0.058386397281961801 
0.0053708168157075263 0.61999999999983479 0.051181863050410142 
0.02111028023422841 0.6000000667180323 0.025852046152150046 
0.13414784591682014 0.56000001111851716 0.021110180993924779 
0.036487236999938298 0.62499999999995859 0.11544158976746288 
0.025851398505208446 0.64000040030934924 0.13888912426041214 
0.063215706028610194 0.58999999999999997 0.043691771237335725 
0.052014056307018997 0.60249999999973169 0.069193198640980835 
0.082591990709951268 0.59186926308839227 0.082393317005787309 
0.1032049856045001 0.57651713913157654 0.075604239744105836 
0.099290052213535526 0.55624999999703029 0.029412277740142274 
0.080000000000000002 0.55999999999999994 2.9391523179536467e-17 
0.074538704804868003 0.56125000022928473 0.036591338882628451 
0.089761967395637202 0.57250000000000001 0.053453738632972925 
0.11266456029398156 0.58014462219994478 0.10755906259462129 
0.1310877965937354 0.56383431735993073 0.097313910712422083 
0.13875805144865455 0.53849788143321897 0.081443642030385996 
0.11654831834319157 0.55371222342966619 0.066979914714997354 
0.072795465762602485 0.61499999999995858 0.13865729579607303 
0.051181863050410108 0.61999999999983491 0.1546291831842925 
0.10740242233909052 0.5497551524899289 0.094174206746287584 
0.087629896544973482 0.57517172617973233 0.1186105114149428 
0.080000000000000002 0.60000000000000009 0.16000000000000006 
0.11356858794277976 0.57999999999999996 0.15261645752532868 
0.13888981900607525 0.56000001111851716 0.13414784591682016 
0.061356541029821209 0.5987500027795879 0.122918279142925 
0.066041959111515239 0.58249999999999991 0.10746920417636088 
0.043691771237335725 0.58999999999999975 0.096784293971389573 
0.007383542474671329 0.61999999999999977 0.11356858794277976 
0.15462918315268825 0.53999999999406034 0.10881813703143406 
0.15261645752532865 0.53999999999999992 0.046431412057220262 
0.11256318289704903 0.5299999999970304 0.034293261437960819 
0.108818137031434 0.53999999999406034 0.0053708168473117456 
0.16 0.51999999999999991 0.080000000000000016 
0.036359066624266682 0.58250003335901634 0.043848965885409125 
0.049787357396200466 0.56625000046153917 0.043770400025114627 
0.051607853014305045 0.56499999999999984 0.061845885618667822 
0.02453129402877911 0.58499999999950481 0.073983078505053965 
0 0.59999999999999976 0.080000000000000016 
0.046431412057220296 0.54000000000000004 0.0073835424746713446 
0.021110180993924768 0.56000001111851716 0.025852154083179847 
0.0053708168202224061 0.57999999999900997 0.051181863038718141 
0.13414782799288064 0.52000000184615669 0.021110164513276099 
0.079999999999999988 0.52000000000000002 2.694222958124176e-17 
0.12120418400398862 0.50500000003177969 0.041393253998635124 
0.025852046152150015 0.6000000667180323 0.13888971976577161 
0.058824906062910146 0.57374999999999987 0.084657544897514356 
0.074196073492847292 0.55749999999999988 0.1090770571906661 
0.080854261315978393 0.5563202088060285 0.080177338983012728 
0.079999999999999863 0.53999999999999992 0.03999999999999998 
0.03635900876379073 0.54250000092307837 0.043849028812893528 
0.083445572740158458 0.49750000017285906 0.025245578123386497 
0.065277541128319003 0.51500000046153904 0.026463043001779846 
0.065277541128318961 0.53500000046153917 0.066463043001779618 
0.094409068726173384 0.49999999998218136 0.042685408504923493 
0.090792884945491592 0.52750000023076959 0.064839374515194823 
0.1123126880274284 0.54698314800806935 0.12044539272677843 
0.12339657571425169 0.53451816173396338 0.096678475799140351 
0.11745087126304236 0.51730724708737275 0.069203385566599204 
0.13269790152805977 0.51252041684389338 0.093589736960914882 
0.097617109413144984 0.52753213161089973 0.091766133500032529 
0.057122150534437463 0.5675000055592585 0.12852196669370361 
0.051181863038718071 0.57999999999901009 0.15462918317977761 
0.079999999999999766 0.53999999999999981 0.12000000000000004 
0.079999999999999974 0.55999999999999994 0.16000000000000003 
0.11356858794277976 0.53999999999999992 0.15261645752532868 
0.13888983548672393 0.52000000184615658 0.13414782799288066 
0.13228382199130448 0.49750000026403401 0.071015101778764772 
0.041540445640352808 0.56250000301039882 0.11047583117305397 
0.007383542474671329 0.57999999999999985 0.11356858794277976 
0.15462918299015238 0.49999999996436267 0.10881813745234674 
0.15261645752532865 0.49999999999999983 0.046431412057220296 
0.10881813745234667 0.49999999996436267 0.0053708170098476261 
0.16 0.47999999999999993 0.080000000000000029 
0.025803926507152568 0.56249999999999989 0.070922942809333978 
0.039999999999999897 0.53999999999999981 0.079999999999999905 
0 0.55999999999999983 0.080000000000000016 
0.046431412057220234 0.5 0.0073835424746713759 
0.021110164513276065 0.52000000184615669 0.025852172007119371 
0.0053708168473117299 0.53999999999406034 0.051181862968566007 
0.12984518511092824 0.4800000000665291 0.048493246559309429 
0.13414782539305578 0.48000000026611594 0.021110162122797989 
0.10161360435199789 0.47999999988417902 0.024028113244993148 
0.080000000000000002 0.47999999999999998 2.4492935982947059e-17 
0.065553450647765896 0.48234692569444376 0.026312962057356386 
0.095423677825744777 0.48250000000772297 0.062628906593103911 
0.031114650265015153 0.52250000059355617 0.062220890037301003 
0.09801717051063509 0.52375000013127448 0.12882123562714154 
0.025852154083179806 0.56000001111851705 0.13888981900607525 
0.059999999999999831 0.53999999999999981 0.099999999999999978 
0.047391764784925135 0.53896531329517328 0.12127231929742896 
0.069999999999999826 0.51999999999999991 0.089999999999999858 
0.051669029059195869 0.51016139620970613 0.053201920936958691 
0.072291709829950604 0.48286713624656069 0.045535865194007846 
0.049805787911002486 0.48331329621357122 0.037152700954608084 
0.035914604743806526 0.49931745168893515 0.045300668525083743 
0.051482863004555166 0.51158102443763165 0.081359877831475663 
0.080575260732620391 0.50032789067890238 0.079161352245144617 
0.10611996277749026 0.50844649705073108 0.10874078681156303 
0.11287657385063254 0.49000000006652905 0.085144809362568921 
0.12588320586391724 0.48500000016632239 0.10964631737781246 
0.081339921788281574 0.51172667203686995 0.10875685698506825 
0.062685495251043555 0.52031237952220399 0.12775657507115915 
0.051181862968565972 0.53999999999406034 0.15462918315268828 
0.079999999999999974 0.51999999999999991 0.16000000000000003 
0.11356858794277976 0.49999999999999983 0.15261645752532868 
0.11150675344069025 0.4800000000665291 0.12984518511092821 
0.13888983787720202 0.48000000026611594 0.13414782539305584 
0.1364382869253162 0.46500000003326453 0.082572404681284295 
0.032436050069645395 0.52481417687016085 0.099371946366381358 
0.0073835424746713446 0.53999999999999992 0.1135685879427798 
0.15462918201493717 0.45999999978617639 0.10881813997782265 
0.13240534956877348 0.44749999907105842 0.059456757049932488 
0.15261645752532865 0.45999999999999996 0.046431412057220262 
0.10881813997782265 0.45999999978617639 0.0053708179850628628 
0.16 0.43999999999999995 0.080000000000000029 
0.13414782728474492 0.43999999979489185 0.021110163862161826 
0 0.51999999999999991 0.080000000000000016 
0.10280212878460049 0.44203124925853104 0.026772766827824618 
0.046431412057220262 0.45999999999999996 0.0073835424746713446 
0.080000000000000016 0.44000000000000006 2.2043642384652358e-17 
0.06431436578786541 0.45078724856293856 0.02641050097728544 
0.021110162122797958 0.48000000026611594 0.025852174606944223 
0.0053708170098475949 0.49999999996436267 0.051181862547653334 
0.027172750311947675 0.47837720261352645 0.053738771318568926 
0.05039744612703629 0.45982578911534083 0.052790659501798266 
0.10707391269652793 0.46000000013305786 0.0505550810613987 
0.086175726613613585 0.45500000009979347 0.038509062356567363 
0.073496683993357473 0.46250000008316139 0.067749245992378179 
0.10944491893860087 0.46000000013305797 0.10707391269652784 
0.096438286925316169 0.46500000003326453 0.082572404681284309 
0.025870291766239579 0.50250000026403396 0.080592751261708478 
0.081008829066585117 0.49770102906824915 0.13168798980797411 
0.025852172007119333 0.52000000184615658 0.13888983548672393 
0.051448048754784349 0.50185161169894599 0.11030133911641135 
0.051105571058904009 0.48107640370374832 0.075458760386170928 
0.083437676286526638 0.47974501907320038 0.10393894975173879 
0.082386818744132062 0.45661379428533955 0.10618402760428232 
0.051181862547653292 0.49999999996436267 0.15462918299015244 
0.080592751261708478 0.46250000026403415 0.13412970823376047 
0.079999999999999974 0.47999999999999993 0.16000000000000003 
0.10204136482828081 0.44624999936079285 0.1322390751924428 
0.11356858794277969 0.45999999999999996 0.15261645752532871 
0.13888983613783817 0.43999999979489185 0.13414782728474495 
0.13104679708271036 0.43770063694708805 0.10719171973738276 
0.13457887703573607 0.420350037353307 0.080679254846276652 
0.11219424161221869 0.43499999814211698 0.072482102042645102 
0.098619852657283763 0.42357452829088943 0.053020318713563462 
0.11092137258503135 0.42167317573474389 0.12440745725908296 
0.12529773829346808 0.40755060416181138 0.106751359774979 
0.007383542474671329 0.49999999999999983 0.11356858794277976 
0.15462917616364386 0.41999999871705862 0.10881815513067779 
0.12209235222972528 0.41820672826668365 0.048463748653782869 
0.15261645752532865 0.41999999999999998 0.046431412057220296 
0.10881815513067777 0.41999999871705873 0.0053708238363561582 
0.16 0.40000000000000002 0.080000000000000016 
0.13414784154998419 0.39999999846905043 0.021110176978718954 
0 0.47999999999999987 0.080000000000000016 
0.11060385338980419 0.4005318223419837 0.033547095843872089 
0.085123653070956096 0.42062499908965806 0.023090248178754918 
0.058416302829438119 0.42531249957809353 0.028468417152581312 
0.021110163862161808 0.43999999979489185 0.025852172715255094 
0.046431412057220262 0.4200000000000001 0.0073835424746713446 
0.080000000000000002 0.40000000000000002 1.9594348786357651e-17 
0.070401193601655629 0.43062499915618718 0.049553291830490953 
0.037886008719006027 0.42531249893662265 0.050367568349906418 
0.0053708179850628316 0.45999999978617639 0.051181860022177388 
0.062003475422229205 0.45610281027513483 0.086992069406810535 
0.046160218615980401 0.44234844566815579 0.072936137766118722 
0.025870291766239433 0.46250000026403421 0.080592751261708312 
0.044216595918504221 0.45745873903199274 0.087675577625142442 
0.078457732473586533 0.43829466870365463 0.078702968993508288 
0.090514141713781762 0.43249999872158568 0.11186169285955712 
0.030882232079082812 0.47282348169674127 0.10520656231988539 
0.056425877725822006 0.47369759588275517 0.13168686196910159 
0.02585217460694416 0.48000000026611594 0.13888983787720202 
0.052926087303471959 0.46000000013305808 0.10944491893860105 
0.067743125568627813 0.44499999931807349 0.10020421100049492 
0.064655259931908612 0.44249999940826823 0.13094968140698635 