Variables=x,y,z
Zone n=752, e=1500, f=fepoint, et=triangle
0 0 0 
0 0 0.059999999999999998 
0 0 0.12 
0 0 0.17999999999999999 
0 0 0.23999999999999999 
0 0 0.29999999999999999 
0.066666666666666985 0 0 
0 0.066666666666666985 0 
0.066666666666666985 0 0.059999999999999998 
0.066666666666666985 0 0.12 
0 0.066666666666666985 0.059999999999999998 
0.066666666666666985 0 0.17999999999999999 
0 0.066666666666666985 0.12 
0.066666666666666985 0 0.23999999999999999 
0 0.066666666666666985 0.17999999999999999 
0.066666666666666985 0 0.29999999999999999 
0 0.066666666666666985 0.23999999999999999 
0 0.066666666666666985 0.29999999999999999 
0.13333333333333297 0 0 
0.066666666666666985 0.066666666666666985 0 
0.13333333333333297 0 0.059999999999999998 
0 0.13333333333333297 0 
0.13333333333333297 0 0.12 
0.13333333333333297 0 0.17999999999999999 
0 0.13333333333333297 0.059999999999999998 
0.13333333333333297 0 0.23999999999999999 
0 0.13333333333333297 0.12 
0.13333333333333297 0 0.29999999999999999 
0 0.13333333333333297 0.17999999999999999 
0.066666666666666985 0.066666666666666985 0.29999999999999999 
0 0.13333333333333297 0.23999999999999999 
0 0.13333333333333297 0.29999999999999999 
0.20000000000000001 0 0 
0.13333333333333297 0.066666666666666985 0 
0.20000000000000001 0 0.059999999999999998 
0.066666666666666985 0.13333333333333297 0 
0.20000000000000001 0 0.12 
0 0.20000000000000001 0 
0.20000000000000001 0 0.17999999999999999 
0.20000000000000001 0 0.23999999999999999 
0 0.20000000000000001 0.059999999999999998 
0.20000000000000001 0 0.29999999999999999 
0 0.20000000000000001 0.12 
0.13333333333333297 0.066666666666666985 0.29999999999999999 
0 0.20000000000000001 0.17999999999999999 
0.066666666666666985 0.13333333333333297 0.29999999999999999 
0 0.20000000000000001 0.23999999999999999 
0 0.20000000000000001 0.29999999999999999 
0.266666666666667 0 0 
0.266666666666667 0 0.059999999999999998 
0.20000000000000001 0.066666666666666985 0 
0.13333333333333297 0.13333333333333297 0 
0.266666666666667 0 0.12 
0.066666666666666985 0.20000000000000001 0 
0.266666666666667 0 0.17999999999999999 
0 0.266666666666667 0 
0.266666666666667 0 0.23999999999999999 
0.266666666666667 0 0.29999999999999999 
0 0.266666666666667 0.059999999999999998 
0.20000000000000001 0.066666666666666985 0.29999999999999999 
0 0.266666666666667 0.12 
0.13333333333333297 0.13333333333333297 0.29999999999999999 
0 0.266666666666667 0.17999999999999999 
0.066666666666666985 0.20000000000000001 0.29999999999999999 
0 0.266666666666667 0.23999999999999999 
0 0.266666666666667 0.29999999999999999 
0.33333333333333298 0 0 
0.33333333333333298 0 0.059999999999999998 
0.266666666666667 0.066666666666666985 0 
0.33333333333333298 0 0.12 
0.20000000000000001 0.13333333333333297 0 
0.13333333333333297 0.20000000000000001 0 
0.33333333333333298 0 0.17999999999999999 
0.066666666666666985 0.266666666666667 0 
0.33333333333333298 0 0.23999999999999999 
0 0.33333333333333298 0 
0.33333333333333298 0 0.29999999999999999 
0.266666666666667 0.066666666666666985 0.29999999999999999 
0 0.33333333333333298 0.059999999999999998 
0.20000000000000001 0.13333333333333297 0.29999999999999999 
0 0.33333333333333298 0.12 
0.13333333333333297 0.20000000000000001 0.29999999999999999 
0 0.33333333333333298 0.17999999999999999 
0.066666666666666985 0.266666666666667 0.29999999999999999 
0 0.33333333333333298 0.23999999999999999 
0 0.33333333333333298 0.29999999999999999 
0.40000000000000002 0 0 
0.40000000000000002 0 0.059999999999999998 
0.33333333333333298 0.066666666666666985 0 
0.40000000000000002 0 0.12 
0.266666666666667 0.13333333333333297 0 
0.40000000000000002 0 0.17999999999999999 
0.20000000000000001 0.20000000000000001 0 
0.13333333333333297 0.266666666666667 0 
0.40000000000000002 0 0.23999999999999999 
0.066666666666666985 0.33333333333333298 0 
0.40000000000000002 0 0.29999999999999999 
0 0.40000000000000002 0 
0.33333333333333298 0.066666666666666985 0.29999999999999999 
0.266666666666667 0.13333333333333297 0.29999999999999999 
0 0.40000000000000002 0.059999999999999998 
0.20000000000000001 0.20000000000000001 0.29999999999999999 
0 0.40000000000000002 0.12 
0.13333333333333297 0.266666666666667 0.29999999999999999 
0 0.40000000000000002 0.17999999999999999 
0.066666666666666985 0.33333333333333298 0.29999999999999999 
0 0.40000000000000002 0.23999999999999999 
0 0.40000000000000002 0.29999999999999999 
0.46666666666666701 0 0 
0.40000000000000002 0.066666666666666985 0 
0.46666666666666701 0 0.059999999999999998 
0.46666666666666701 0 0.12 
0.33333333333333298 0.13333333333333297 0 
0.46666666666666701 0 0.17999999999999999 
0.266666666666667 0.20000000000000001 0 
0.46666666666666701 0 0.23999999999999999 
0.20000000000000001 0.266666666666667 0 
0.13333333333333297 0.33333333333333298 0 
0.46666666666666701 0 0.29999999999999999 
0.066666666666666985 0.40000000000000002 0 
0.40000000000000002 0.066666666666666985 0.29999999999999999 
0 0.46666666666666701 0 
0.33333333333333298 0.13333333333333297 0.29999999999999999 
0.266666666666667 0.20000000000000001 0.29999999999999999 
0 0.46666666666666701 0.059999999999999998 
0.20000000000000001 0.266666666666667 0.29999999999999999 
0 0.46666666666666701 0.12 
0.13333333333333297 0.33333333333333298 0.29999999999999999 
0 0.46666666666666701 0.17999999999999999 
0.066666666666666985 0.40000000000000002 0.29999999999999999 
0 0.46666666666666701 0.23999999999999999 
0 0.46666666666666701 0.29999999999999999 
0.53333333333333299 0 0 
0.53333333333333299 0 0.059999999999999998 
0.46666666666666701 0.066666666666666985 0 
0.40000000000000002 0.13333333333333297 0 
0.53333333333333299 0 0.12 
0.53333333333333299 0 0.17999999999999999 
0.33333333333333298 0.20000000000000001 0 
0.53333333333333299 0 0.23999999999999999 
0.266666666666667 0.266666666666667 0 
0.53333333333333299 0 0.29999999999999999 
0.20000000000000001 0.33333333333333298 0 
0.13333333333333297 0.40000000000000002 0 
0.46666666666666701 0.066666666666666985 0.29999999999999999 
0.066666666666666985 0.46666666666666701 0 
0.40000000000000002 0.13333333333333297 0.29999999999999999 
0 0.53333333333333299 0 
0.33333333333333298 0.20000000000000001 0.29999999999999999 
0.266666666666667 0.266666666666667 0.29999999999999999 
0 0.53333333333333299 0.059999999999999998 
0.20000000000000001 0.33333333333333298 0.29999999999999999 
0 0.53333333333333299 0.12 
0.13333333333333297 0.40000000000000002 0.29999999999999999 
0 0.53333333333333299 0.17999999999999999 
0.066666666666666985 0.46666666666666701 0.29999999999999999 
0 0.53333333333333299 0.23999999999999999 
0 0.53333333333333299 0.29999999999999999 
0.59999999999999998 0 0 
0.53333333333333299 0.066666666666666985 0 
0.59999999999999998 0 0.059999999999999998 
0.59999999999999998 0 0.12 
0.46666666666666701 0.13333333333333297 0 
0.40000000000000002 0.20000000000000001 0 
0.59999999999999998 0 0.17999999999999999 
0.59999999999999998 0 0.23999999999999999 
0.33333333333333298 0.266666666666667 0 
0.59999999999999998 0 0.29999999999999999 
0.266666666666667 0.33333333333333298 0 
0.53333333333333299 0.066666666666666985 0.29999999999999999 
0.20000000000000001 0.40000000000000002 0 
0.13333333333333297 0.46666666666666701 0 
0.46666666666666701 0.13333333333333297 0.29999999999999999 
0.066666666666666985 0.53333333333333299 0 
0.40000000000000002 0.20000000000000001 0.29999999999999999 
0 0.59999999999999998 0 
0.33333333333333298 0.266666666666667 0.29999999999999999 
0.266666666666667 0.33333333333333298 0.29999999999999999 
0 0.59999999999999998 0.059999999999999998 
0.20000000000000001 0.40000000000000002 0.29999999999999999 
0 0.59999999999999998 0.12 
0.13333333333333297 0.46666666666666701 0.29999999999999999 
0 0.59999999999999998 0.17999999999999999 
0.066666666666666985 0.53333333333333299 0.29999999999999999 
0 0.59999999999999998 0.23999999999999999 
0 0.59999999999999998 0.29999999999999999 
0.66666666666666696 0 0 
0.73333333333333295 0 0 
0.80000000000000004 0 0 
0.86666666666666703 0 0 
0.93333333333333302 0 0 
1 0 0 
0.59999999999999998 0.066666666666666985 0 
0.66666666666666696 0 0.059999999999999998 
0.53333333333333299 0.13333333333333297 0 
0.66666666666666696 0 0.12 
0.66666666666666696 0 0.17999999999999999 
0.46666666666666701 0.20000000000000001 0 
0.40000000000000002 0.266666666666667 0 
0.66666666666666696 0 0.23999999999999999 
0.66666666666666696 0 0.29999999999999999 
0.33333333333333298 0.33333333333333298 0 
0.59999999999999998 0.066666666666666985 0.29999999999999999 
0.266666666666667 0.40000000000000002 0 
0.53333333333333299 0.13333333333333297 0.29999999999999999 
0.20000000000000001 0.46666666666666701 0 
0.13333333333333297 0.53333333333333299 0 
0.46666666666666701 0.20000000000000001 0.29999999999999999 
0.066666666666666985 0.59999999999999998 0 
0.40000000000000002 0.266666666666667 0.29999999999999999 
0 0.66666666666666696 0 
0.33333333333333298 0.33333333333333298 0.29999999999999999 
0.266666666666667 0.40000000000000002 0.29999999999999999 
0 0.66666666666666696 0.059999999999999998 
0.20000000000000001 0.46666666666666701 0.29999999999999999 
0 0.66666666666666696 0.12 
0.13333333333333297 0.53333333333333299 0.29999999999999999 
0 0.66666666666666696 0.17999999999999999 
0.066666666666666985 0.59999999999999998 0.29999999999999999 
0 0.66666666666666696 0.23999999999999999 
0 0.66666666666666696 0.29999999999999999 
0.66666666666666696 0.066666666666666985 0 
0.73333333333333295 0 0.059999999999999998 
0.73333333333333295 0.066666666666666985 0 
0.80000000000000004 0 0.059999999999999998 
0.80000000000000004 0.066666666666666985 0 
0.86666666666666703 0 0.059999999999999998 
0.86666666666666703 0.066666666666666985 0 
0.93333333333333302 0 0.059999999999999998 
1 0 0.059999999999999998 
0.93333333333333302 0.066666666666666985 0 
1 0.066666666666666985 0 
0.59999999999999998 0.13333333333333297 0 
0.73333333333333295 0 0.12 
0.53333333333333299 0.20000000000000001 0 
0.73333333333333295 0 0.17999999999999999 
0.73333333333333295 0 0.23999999999999999 
0.46666666666666701 0.266666666666667 0 
0.40000000000000002 0.33333333333333298 0 
0.73333333333333295 0 0.29999999999999999 
0.66666666666666696 0.066666666666666985 0.29999999999999999 
0.33333333333333298 0.40000000000000002 0 
0.59999999999999998 0.13333333333333297 0.29999999999999999 
0.266666666666667 0.46666666666666701 0 
0.53333333333333299 0.20000000000000001 0.29999999999999999 
0.20000000000000001 0.53333333333333299 0 
0.13333333333333297 0.59999999999999998 0 
0.46666666666666701 0.266666666666667 0.29999999999999999 
0.066666666666666985 0.66666666666666696 0 
0.40000000000000002 0.33333333333333298 0.29999999999999999 
0 0.73333333333333295 0 
0.33333333333333298 0.40000000000000002 0.29999999999999999 
0.266666666666667 0.46666666666666701 0.29999999999999999 
0 0.73333333333333295 0.059999999999999998 
0.20000000000000001 0.53333333333333299 0.29999999999999999 
0 0.73333333333333295 0.12 
0.13333333333333297 0.59999999999999998 0.29999999999999999 
0 0.73333333333333295 0.17999999999999999 
0.066666666666666985 0.66666666666666696 0.29999999999999999 
0 0.73333333333333295 0.23999999999999999 
0 0.73333333333333295 0.29999999999999999 
0.66666666666666696 0.13333333333333297 0 
0.80000000000000004 0 0.12 
0.73333333333333295 0.13333333333333297 0 
0.86666666666666703 0 0.12 
0.80000000000000004 0.13333333333333297 0 
0.93333333333333302 0 0.12 
0.86666666666666703 0.13333333333333297 0 
1 0 0.12 
1 0.066666666666666985 0.059999999999999998 
0.93333333333333302 0.13333333333333297 0 
1 0.13333333333333297 0 
0.59999999999999998 0.20000000000000001 0 
0.80000000000000004 0 0.17999999999999999 
0.53333333333333299 0.266666666666667 0 
0.80000000000000004 0 0.23999999999999999 
0.80000000000000004 0 0.29999999999999999 
0.46666666666666701 0.33333333333333298 0 
0.40000000000000002 0.40000000000000002 0 
0.73333333333333295 0.066666666666666985 0.29999999999999999 
0.66666666666666696 0.13333333333333297 0.29999999999999999 
0.33333333333333298 0.46666666666666701 0 
0.59999999999999998 0.20000000000000001 0.29999999999999999 
0.266666666666667 0.53333333333333299 0 
0.53333333333333299 0.266666666666667 0.29999999999999999 
0.20000000000000001 0.59999999999999998 0 
0.13333333333333297 0.66666666666666696 0 
0.46666666666666701 0.33333333333333298 0.29999999999999999 
0.066666666666666985 0.73333333333333295 0 
0.40000000000000002 0.40000000000000002 0.29999999999999999 
0 0.80000000000000004 0 
0.33333333333333298 0.46666666666666701 0.29999999999999999 
0.266666666666667 0.53333333333333299 0.29999999999999999 
0 0.80000000000000004 0.059999999999999998 
0.20000000000000001 0.59999999999999998 0.29999999999999999 
0 0.80000000000000004 0.12 
0.13333333333333297 0.66666666666666696 0.29999999999999999 
0 0.80000000000000004 0.17999999999999999 
0.066666666666666985 0.73333333333333295 0.29999999999999999 
0 0.80000000000000004 0.23999999999999999 
0 0.80000000000000004 0.29999999999999999 
0.66666666666666696 0.20000000000000001 0 
0.86666666666666703 0 0.17999999999999999 
0.73333333333333295 0.20000000000000001 0 
0.93333333333333302 0 0.17999999999999999 
0.80000000000000004 0.20000000000000001 0 
1 0 0.17999999999999999 
0.86666666666666703 0.20000000000000001 0 
1 0.066666666666666985 0.12 
1 0.13333333333333297 0.059999999999999998 
0.93333333333333302 0.20000000000000001 0 
1 0.20000000000000001 0 
0.59999999999999998 0.266666666666667 0 
0.86666666666666703 0 0.23999999999999999 
0.53333333333333299 0.33333333333333298 0 
0.86666666666666703 0 0.29999999999999999 
0.80000000000000004 0.066666666666666985 0.29999999999999999 
0.46666666666666701 0.40000000000000002 0 
0.40000000000000002 0.46666666666666701 0 
0.73333333333333295 0.13333333333333297 0.29999999999999999 
0.66666666666666696 0.20000000000000001 0.29999999999999999 
0.33333333333333298 0.53333333333333299 0 
0.59999999999999998 0.266666666666667 0.29999999999999999 
0.266666666666667 0.59999999999999998 0 
0.53333333333333299 0.33333333333333298 0.29999999999999999 
0.20000000000000001 0.66666666666666696 0 
0.13333333333333297 0.73333333333333295 0 
0.46666666666666701 0.40000000000000002 0.29999999999999999 
0.066666666666666985 0.80000000000000004 0 
0.40000000000000002 0.46666666666666701 0.29999999999999999 
0 0.86666666666666703 0 
0.33333333333333298 0.53333333333333299 0.29999999999999999 
0.266666666666667 0.59999999999999998 0.29999999999999999 
0 0.86666666666666703 0.059999999999999998 
0.20000000000000001 0.66666666666666696 0.29999999999999999 
0 0.86666666666666703 0.12 
0.13333333333333297 0.73333333333333295 0.29999999999999999 
0 0.86666666666666703 0.17999999999999999 
0.066666666666666985 0.80000000000000004 0.29999999999999999 
0 0.86666666666666703 0.23999999999999999 
0 0.86666666666666703 0.29999999999999999 
0.66666666666666696 0.266666666666667 0 
0.93333333333333302 0 0.23999999999999999 
0.73333333333333295 0.266666666666667 0 
1 0 0.23999999999999999 
0.80000000000000004 0.266666666666667 0 
1 0.066666666666666985 0.17999999999999999 
0.86666666666666703 0.266666666666667 0 
1 0.13333333333333297 0.12 
1 0.20000000000000001 0.059999999999999998 
0.93333333333333302 0.266666666666667 0 
1 0.266666666666667 0 
0.59999999999999998 0.33333333333333298 0 
0.93333333333333302 0 0.29999999999999999 
0.53333333333333299 0.40000000000000002 0 
0.86666666666666703 0.066666666666666985 0.29999999999999999 
0.80000000000000004 0.13333333333333297 0.29999999999999999 
0.46666666666666701 0.46666666666666701 0 
0.40000000000000002 0.53333333333333299 0 
0.73333333333333295 0.20000000000000001 0.29999999999999999 
0.66666666666666696 0.266666666666667 0.29999999999999999 
0.33333333333333298 0.59999999999999998 0 
0.59999999999999998 0.33333333333333298 0.29999999999999999 
0.266666666666667 0.66666666666666696 0 
0.53333333333333299 0.40000000000000002 0.29999999999999999 
0.20000000000000001 0.73333333333333295 0 
0.13333333333333297 0.80000000000000004 0 
0.46666666666666701 0.46666666666666701 0.29999999999999999 
0.066666666666666985 0.86666666666666703 0 
0.40000000000000002 0.53333333333333299 0.29999999999999999 
0 0.93333333333333302 0 
0.33333333333333298 0.59999999999999998 0.29999999999999999 
0.266666666666667 0.66666666666666696 0.29999999999999999 
0 0.93333333333333302 0.059999999999999998 
0.20000000000000001 0.73333333333333295 0.29999999999999999 
0 0.93333333333333302 0.12 
0.13333333333333297 0.80000000000000004 0.29999999999999999 
0 0.93333333333333302 0.17999999999999999 
0.066666666666666985 0.86666666666666703 0.29999999999999999 
0 0.93333333333333302 0.23999999999999999 
0 0.93333333333333302 0.29999999999999999 
0.66666666666666696 0.33333333333333298 0 
1 0 0.29999999999999999 
0.73333333333333295 0.33333333333333298 0 
1 0.066666666666666985 0.23999999999999999 
0.80000000000000004 0.33333333333333298 0 
1 0.13333333333333297 0.17999999999999999 
0.86666666666666703 0.33333333333333298 0 
1 0.20000000000000001 0.12 
1 0.266666666666667 0.059999999999999998 
0.93333333333333302 0.33333333333333298 0 
1 0.33333333333333298 0 
0.59999999999999998 0.40000000000000002 0 
0.93333333333333302 0.066666666666666985 0.29999999999999999 
0.53333333333333299 0.46666666666666701 0 
0.86666666666666703 0.13333333333333297 0.29999999999999999 
0.80000000000000004 0.20000000000000001 0.29999999999999999 
0.46666666666666701 0.53333333333333299 0 
0.40000000000000002 0.59999999999999998 0 
0.73333333333333295 0.266666666666667 0.29999999999999999 
0.66666666666666696 0.33333333333333298 0.29999999999999999 
0.33333333333333298 0.66666666666666696 0 
0.59999999999999998 0.40000000000000002 0.29999999999999999 
0.266666666666667 0.73333333333333295 0 
0.53333333333333299 0.46666666666666701 0.29999999999999999 
0.20000000000000001 0.80000000000000004 0 
0.13333333333333297 0.86666666666666703 0 
0.46666666666666701 0.53333333333333299 0.29999999999999999 
0.066666666666666985 0.93333333333333302 0 
0.40000000000000002 0.59999999999999998 0.29999999999999999 
0 1 0 
0.33333333333333298 0.66666666666666696 0.29999999999999999 
0.266666666666667 0.73333333333333295 0.29999999999999999 
0 1 0.059999999999999998 
0.20000000000000001 0.80000000000000004 0.29999999999999999 
0 1 0.12 
0.13333333333333297 0.86666666666666703 0.29999999999999999 
0 1 0.17999999999999999 
0.066666666666666985 0.93333333333333302 0.29999999999999999 
0 1 0.23999999999999999 
0 1 0.29999999999999999 
0.66666666666666696 0.40000000000000002 0 
1 0.066666666666666985 0.29999999999999999 
0.73333333333333295 0.40000000000000002 0 
1 0.13333333333333297 0.23999999999999999 
0.80000000000000004 0.40000000000000002 0 
1 0.20000000000000001 0.17999999999999999 
0.86666666666666703 0.40000000000000002 0 
1 0.266666666666667 0.12 
1 0.33333333333333298 0.059999999999999998 
0.93333333333333302 0.40000000000000002 0 
1 0.40000000000000002 0 
0.59999999999999998 0.46666666666666701 0 
0.93333333333333302 0.13333333333333297 0.29999999999999999 
0.53333333333333299 0.53333333333333299 0 
0.86666666666666703 0.20000000000000001 0.29999999999999999 
0.80000000000000004 0.266666666666667 0.29999999999999999 
0.46666666666666701 0.59999999999999998 0 
0.40000000000000002 0.66666666666666696 0 
0.73333333333333295 0.33333333333333298 0.29999999999999999 
0.66666666666666696 0.40000000000000002 0.29999999999999999 
0.33333333333333298 0.73333333333333295 0 
0.59999999999999998 0.46666666666666701 0.29999999999999999 
0.266666666666667 0.80000000000000004 0 
0.53333333333333299 0.53333333333333299 0.29999999999999999 
0.20000000000000001 0.86666666666666703 0 
0.13333333333333297 0.93333333333333302 0 
0.46666666666666701 0.59999999999999998 0.29999999999999999 
0.066666666666666985 1 0 
0.40000000000000002 0.66666666666666696 0.29999999999999999 
0.066666666666666985 1 0.059999999999999998 
0.33333333333333298 0.73333333333333295 0.29999999999999999 
0.266666666666667 0.80000000000000004 0.29999999999999999 
0.066666666666666985 1 0.12 
0.20000000000000001 0.86666666666666703 0.29999999999999999 
0.066666666666666985 1 0.17999999999999999 
0.13333333333333297 0.93333333333333302 0.29999999999999999 
0.066666666666666985 1 0.23999999999999999 
0.066666666666666985 1 0.29999999999999999 
0.66666666666666696 0.46666666666666701 0 
1 0.13333333333333297 0.29999999999999999 
0.73333333333333295 0.46666666666666701 0 
1 0.20000000000000001 0.23999999999999999 
0.80000000000000004 0.46666666666666701 0 
1 0.266666666666667 0.17999999999999999 
0.86666666666666703 0.46666666666666701 0 
1 0.33333333333333298 0.12 
1 0.40000000000000002 0.059999999999999998 
0.93333333333333302 0.46666666666666701 0 
1 0.46666666666666701 0 
0.59999999999999998 0.53333333333333299 0 
0.93333333333333302 0.20000000000000001 0.29999999999999999 
0.53333333333333299 0.59999999999999998 0 
0.86666666666666703 0.266666666666667 0.29999999999999999 
0.80000000000000004 0.33333333333333298 0.29999999999999999 
0.46666666666666701 0.66666666666666696 0 
0.40000000000000002 0.73333333333333295 0 
0.73333333333333295 0.40000000000000002 0.29999999999999999 
0.66666666666666696 0.46666666666666701 0.29999999999999999 
0.33333333333333298 0.80000000000000004 0 
0.59999999999999998 0.53333333333333299 0.29999999999999999 
0.266666666666667 0.86666666666666703 0 
0.53333333333333299 0.59999999999999998 0.29999999999999999 
0.20000000000000001 0.93333333333333302 0 
0.13333333333333297 1 0 
0.46666666666666701 0.66666666666666696 0.29999999999999999 
0.13333333333333297 1 0.059999999999999998 
0.40000000000000002 0.73333333333333295 0.29999999999999999 
0.13333333333333297 1 0.12 
0.33333333333333298 0.80000000000000004 0.29999999999999999 
0.266666666666667 0.86666666666666703 0.29999999999999999 
0.13333333333333297 1 0.17999999999999999 
0.20000000000000001 0.93333333333333302 0.29999999999999999 
0.13333333333333297 1 0.23999999999999999 
0.13333333333333297 1 0.29999999999999999 
0.66666666666666696 0.53333333333333299 0 
1 0.20000000000000001 0.29999999999999999 
0.73333333333333295 0.53333333333333299 0 
1 0.266666666666667 0.23999999999999999 
0.80000000000000004 0.53333333333333299 0 
1 0.33333333333333298 0.17999999999999999 
0.86666666666666703 0.53333333333333299 0 
1 0.40000000000000002 0.12 
1 0.46666666666666701 0.059999999999999998 
0.93333333333333302 0.53333333333333299 0 
1 0.53333333333333299 0 
0.59999999999999998 0.59999999999999998 0 
0.93333333333333302 0.266666666666667 0.29999999999999999 
0.53333333333333299 0.66666666666666696 0 
0.86666666666666703 0.33333333333333298 0.29999999999999999 
0.80000000000000004 0.40000000000000002 0.29999999999999999 
0.46666666666666701 0.73333333333333295 0 
0.40000000000000002 0.80000000000000004 0 
0.73333333333333295 0.46666666666666701 0.29999999999999999 
0.66666666666666696 0.53333333333333299 0.29999999999999999 
0.33333333333333298 0.86666666666666703 0 
0.59999999999999998 0.59999999999999998 0.29999999999999999 
0.266666666666667 0.93333333333333302 0 
0.53333333333333299 0.66666666666666696 0.29999999999999999 
0.20000000000000001 1 0 
0.20000000000000001 1 0.059999999999999998 
0.46666666666666701 0.73333333333333295 0.29999999999999999 
0.20000000000000001 1 0.12 
0.40000000000000002 0.80000000000000004 0.29999999999999999 
0.20000000000000001 1 0.17999999999999999 
0.33333333333333298 0.86666666666666703 0.29999999999999999 
0.266666666666667 0.93333333333333302 0.29999999999999999 
0.20000000000000001 1 0.23999999999999999 
0.20000000000000001 1 0.29999999999999999 
0.66666666666666696 0.59999999999999998 0 
1 0.266666666666667 0.29999999999999999 
0.73333333333333295 0.59999999999999998 0 
1 0.33333333333333298 0.23999999999999999 
0.80000000000000004 0.59999999999999998 0 
1 0.40000000000000002 0.17999999999999999 
0.86666666666666703 0.59999999999999998 0 
1 0.46666666666666701 0.12 
1 0.53333333333333299 0.059999999999999998 
0.93333333333333302 0.59999999999999998 0 
1 0.59999999999999998 0 
0.59999999999999998 0.66666666666666696 0 
0.93333333333333302 0.33333333333333298 0.29999999999999999 
0.53333333333333299 0.73333333333333295 0 
0.86666666666666703 0.40000000000000002 0.29999999999999999 
0.80000000000000004 0.46666666666666701 0.29999999999999999 
0.46666666666666701 0.80000000000000004 0 
0.40000000000000002 0.86666666666666703 0 
0.73333333333333295 0.53333333333333299 0.29999999999999999 
0.66666666666666696 0.59999999999999998 0.29999999999999999 
0.33333333333333298 0.93333333333333302 0 
0.59999999999999998 0.66666666666666696 0.29999999999999999 
0.266666666666667 1 0 
0.53333333333333299 0.73333333333333295 0.29999999999999999 
0.266666666666667 1 0.059999999999999998 
0.266666666666667 1 0.12 
0.46666666666666701 0.80000000000000004 0.29999999999999999 
0.266666666666667 1 0.17999999999999999 
0.40000000000000002 0.86666666666666703 0.29999999999999999 
0.266666666666667 1 0.23999999999999999 
0.33333333333333298 0.93333333333333302 0.29999999999999999 
0.266666666666667 1 0.29999999999999999 
0.66666666666666696 0.66666666666666696 0 
1 0.33333333333333298 0.29999999999999999 
0.73333333333333295 0.66666666666666696 0 
1 0.40000000000000002 0.23999999999999999 
0.80000000000000004 0.66666666666666696 0 
1 0.46666666666666701 0.17999999999999999 
0.86666666666666703 0.66666666666666696 0 
1 0.53333333333333299 0.12 
1 0.59999999999999998 0.059999999999999998 
0.93333333333333302 0.66666666666666696 0 
1 0.66666666666666696 0 
0.59999999999999998 0.73333333333333295 0 
0.93333333333333302 0.40000000000000002 0.29999999999999999 
0.53333333333333299 0.80000000000000004 0 
0.86666666666666703 0.46666666666666701 0.29999999999999999 
0.80000000000000004 0.53333333333333299 0.29999999999999999 
0.46666666666666701 0.86666666666666703 0 
0.40000000000000002 0.93333333333333302 0 
0.73333333333333295 0.59999999999999998 0.29999999999999999 
0.66666666666666696 0.66666666666666696 0.29999999999999999 
0.33333333333333298 1 0 
0.59999999999999998 0.73333333333333295 0.29999999999999999 
0.33333333333333298 1 0.059999999999999998 
0.53333333333333299 0.80000000000000004 0.29999999999999999 
0.33333333333333298 1 0.12 
0.33333333333333298 1 0.17999999999999999 
0.46666666666666701 0.86666666666666703 0.29999999999999999 
0.33333333333333298 1 0.23999999999999999 
0.40000000000000002 0.93333333333333302 0.29999999999999999 
0.33333333333333298 1 0.29999999999999999 
0.66666666666666696 0.73333333333333295 0 
1 0.40000000000000002 0.29999999999999999 
0.73333333333333295 0.73333333333333295 0 
1 0.46666666666666701 0.23999999999999999 
0.80000000000000004 0.73333333333333295 0 
1 0.53333333333333299 0.17999999999999999 
0.86666666666666703 0.73333333333333295 0 
1 0.59999999999999998 0.12 
1 0.66666666666666696 0.059999999999999998 
0.93333333333333302 0.73333333333333295 0 
1 0.73333333333333295 0 
0.59999999999999998 0.80000000000000004 0 
0.93333333333333302 0.46666666666666701 0.29999999999999999 
0.53333333333333299 0.86666666666666703 0 
0.86666666666666703 0.53333333333333299 0.29999999999999999 
0.80000000000000004 0.59999999999999998 0.29999999999999999 
0.46666666666666701 0.93333333333333302 0 
0.40000000000000002 1 0 
0.73333333333333295 0.66666666666666696 0.29999999999999999 
0.66666666666666696 0.73333333333333295 0.29999999999999999 
0.40000000000000002 1 0.059999999999999998 
0.59999999999999998 0.80000000000000004 0.29999999999999999 
0.40000000000000002 1 0.12 
0.53333333333333299 0.86666666666666703 0.29999999999999999 
0.40000000000000002 1 0.17999999999999999 
0.40000000000000002 1 0.23999999999999999 
0.46666666666666701 0.93333333333333302 0.29999999999999999 
0.40000000000000002 1 0.29999999999999999 
0.66666666666666696 0.80000000000000004 0 
1 0.46666666666666701 0.29999999999999999 
0.73333333333333295 0.80000000000000004 0 
1 0.53333333333333299 0.23999999999999999 
0.80000000000000004 0.80000000000000004 0 
1 0.59999999999999998 0.17999999999999999 
0.86666666666666703 0.80000000000000004 0 
1 0.66666666666666696 0.12 
1 0.73333333333333295 0.059999999999999998 
0.93333333333333302 0.80000000000000004 0 
1 0.80000000000000004 0 
0.59999999999999998 0.86666666666666703 0 
0.93333333333333302 0.53333333333333299 0.29999999999999999 
0.53333333333333299 0.93333333333333302 0 
0.86666666666666703 0.59999999999999998 0.29999999999999999 
0.80000000000000004 0.66666666666666696 0.29999999999999999 
0.46666666666666701 1 0 
0.46666666666666701 1 0.059999999999999998 
0.73333333333333295 0.73333333333333295 0.29999999999999999 
0.66666666666666696 0.80000000000000004 0.29999999999999999 
0.46666666666666701 1 0.12 
0.59999999999999998 0.86666666666666703 0.29999999999999999 
0.46666666666666701 1 0.17999999999999999 
0.53333333333333299 0.93333333333333302 0.29999999999999999 
0.46666666666666701 1 0.23999999999999999 
0.46666666666666701 1 0.29999999999999999 
0.66666666666666696 0.86666666666666703 0 
1 0.53333333333333299 0.29999999999999999 
0.73333333333333295 0.86666666666666703 0 
1 0.59999999999999998 0.23999999999999999 
0.80000000000000004 0.86666666666666703 0 
1 0.66666666666666696 0.17999999999999999 
0.86666666666666703 0.86666666666666703 0 
1 0.73333333333333295 0.12 
1 0.80000000000000004 0.059999999999999998 
0.93333333333333302 0.86666666666666703 0 
1 0.86666666666666703 0 
0.59999999999999998 0.93333333333333302 0 
0.93333333333333302 0.59999999999999998 0.29999999999999999 
0.53333333333333299 1 0 
0.86666666666666703 0.66666666666666696 0.29999999999999999 
0.80000000000000004 0.73333333333333295 0.29999999999999999 
0.53333333333333299 1 0.059999999999999998 
0.53333333333333299 1 0.12 
0.73333333333333295 0.80000000000000004 0.29999999999999999 
0.66666666666666696 0.86666666666666703 0.29999999999999999 
0.53333333333333299 1 0.17999999999999999 
0.59999999999999998 0.93333333333333302 0.29999999999999999 