Variables=x,y,z
Zone n=1478, e=4427, f=fepoint, et=tetrahedron
0.04250000000000001 0.014230769230769238 0.042000000000000016 
0.04250000000000001 0.041153846153846166 0.042000000000000016 
0.042500000000000003 0.037307692307692292 0.04200000000000001 
0.044499999999999998 0.041153846153846145 0.04200000000000001 
0.044499999999999998 0.018076923076923077 0.04200000000000001 
0.042500000000000003 0.018076923076923077 0.04200000000000001 
0.044499999999999991 0.037307692307692285 0.042000000000000003 
0.044499999999999998 0.021923076923076906 0.04200000000000001 
0.044499999999999998 0.033461538461538431 0.04200000000000001 
0.044500000000000005 0.025769230769230742 0.042000000000000003 
0.044500000000000005 0.029615384615384596 0.042000000000000023 
0.042500000000000003 0.033461538461538445 0.042000000000000003 
0.043530292021299578 0.034122892294545508 0.040577961462452315 
0.04250000000000001 0.02192307692307691 0.042000000000000016 
0.042500000000000003 0.025769230769230742 0.04200000000000001 
0.042500000000000003 0.029615384615384596 0.04200000000000001 
0.044499999999999991 -0.0011538461538461507 0.042000000000000003 
0.044500000000000005 -0.0050000000000000001 0.041999999999999996 
0.044499999999999998 0.0026923076923076974 0.04200000000000001 
0.044499999999999998 0.014230769230769243 0.04200000000000001 
0.044499999999999991 0.0065384615384615511 0.042000000000000003 
0.044499999999999998 0.010384615384615404 0.04200000000000001 
0.043493123610872743 0.010417549799950045 0.040543268660423237 
0.042499999999999996 0.01038461538461539 0.042000000000000003 
0.042452483206455206 0.016257309062379648 0.038388723690595428 
0.044545262693580376 0.016040475886960722 0.038560035287891523 
0.042452750866421925 0.012516638616084617 0.038409065848066075 
0.042500000000000003 0.045000000000000005 0.041999999999999996 
0.044500000000000005 0.045000000000000005 0.041999999999999996 
0.044536737326001996 0.042260825182795662 0.039207963223848417 
0.042458379957566218 0.039197162170795344 0.038836876775031982 
0.04246280701743281 0.042255683969060098 0.039173333324893402 
0.042454446217796385 0.035689122898981428 0.038537912552524714 
0.04454130187705415 0.039165425316754793 0.038861057343884842 
0.042500000000000003 -0.0050000000000000001 0.041999999999999996 
0.044544277744894042 0.019955197032428578 0.038634891388053053 
0.042452433398572305 0.019949959877685875 0.038384938291495141 
0.044545859545704204 0.035000567498342121 0.038514674526480754 
0.044544535187071695 0.023506637135640492 0.038615325782551543 
0.044544592242782031 0.031201037143644632 0.038610989548566163 
0.044542909055915153 0.027433401557915009 0.038738911750448801 
0.042453456659480034 0.031503875218109975 0.038462706120482325 
0.042451584645589742 0.023679252603046416 0.038320433064819942 
0.042448015151679667 0.027642057509327002 0.038049151527654514 
0.042500000000000003 -0.0011538461538461542 0.04200000000000001 
0.042500000000000003 0.0065384615384615468 0.04200000000000001 
0.04250000000000001 0.0026923076923076861 0.04200000000000001 
0.044532901008149633 -0.0022921637812217516 0.039499523380628274 
0.044536733145455497 0.00081402060616181024 0.039208280945382229 
0.042464766280710227 -0.0023149983244156536 0.039322237333977092 
0.044554327115694153 -0.005000000000000001 0.037871139207244726 
0.044540376344447574 0.0044080856717415989 0.038931397821984716 
0.04454772933149146 0.012306326953587226 0.038372570806649076 
0.044547062963153979 0.0083339506860502961 0.038423214800298165 
0.042451566611856013 0.0088100009118384434 0.038319062501056808 
0.0445924589782895 0.01806727852715042 0.03497311764999838 
0.04240670933868227 0.018095270861509711 0.034909909739852488 
0.042407951509195789 0.014545088759587836 0.035004314698879949 
0.044595880589702291 0.014495264893943489 0.034713075182625848 
0.04240784092576684 0.010930353465383949 0.034995910358279737 
0.04241747004287303 0.033730506676125288 0.035727723258349955 
0.042445672884305868 0.045000000000000012 0.037871139207244692 
0.043499970479209449 0.043788867583435996 0.037696048062490661 
0.044554327115694167 0.045000000000000012 0.037871139207244699 
0.044580340085887439 0.041669523306012958 0.035894153472554979 
0.042402604243483723 0.037622375626141784 0.0345979225047627 
0.042419820362772198 0.041702643376491287 0.03590634757068676 
0.04460281014557519 0.0373026320957364 0.034186428936286054 
0.042445672884305854 -0.0050000000000000018 0.037871139207244643 
0.044590001156715048 0.021841531264933805 0.035159912089656568 
0.042405850127630602 0.021884292726138357 0.034844609699925921 
0.044598909647481609 0.032610380028312846 0.034482866791398198 
0.044588785337432005 0.025286027135857793 0.035252314355167888 
0.044590201673710403 0.029127007937468835 0.035144672798009702 
0.042398923594619019 0.030445802663678433 0.034318193191045218 
0.04240579312425094 0.025807504437291778 0.034840277443071353 
0.042458888305586751 0.00077261472083371393 0.038875511224592776 
0.042448523126994979 0.0050433557579206943 0.038087757651618308 
0.044570906600116103 0.0025571164246048785 0.036611098391176662 
0.042418798909752184 -0.0017565228851453719 0.035828717141165825 
0.044583391228559401 -0.0012981093379525663 0.035662266629485885 
0.044611602601194525 -0.0050000000000000018 0.033518202309216913 
0.044586548831168867 0.0057524668219782037 0.035422288831166771 
0.044603704094235322 0.010294515386710465 0.034118488838115996 
0.044631580615825679 0.019882929561890424 0.031999873197248667 
0.042360342510402951 0.020038886808184608 0.031386030790624207 
0.043498786205071631 0.018234501257256598 0.031673043669165409 
0.044636675044837287 0.016785788612399301 0.031612696592366867 
0.042400676195543108 0.0075951404449147572 0.03445139086127625 
0.04236485879938362 0.016229022888752546 0.031729268753155147 
0.042376014142594454 0.013054326869000203 0.032577074837178421 
0.044640955525706454 0.013156314783650645 0.031287380046310119 
0.042359830269156191 0.010302056773669221 0.031347100455870643 
0.026833333333333341 0.014230769230769208 0.04200000000000001 
0.042349022901205458 0.030620252224162967 0.030525740491614668 
0.04236261513567742 0.033857891536397539 0.031558750311483863 
0.044653789219539441 0.033774516485463847 0.030312019315002683 
0.04238839739880549 0.045000000000000005 0.03351820230921683 
0.042332176456033536 0.037384914310174135 0.029245410658548548 
0.042359116581599292 0.04139549610062198 0.031292860201545751 
0.044611602601194518 0.044999999999999998 0.033518202309216878 
0.044639040379810528 0.041417418588794171 0.031432931134400516 
0.044671662052388379 0.037433762323142647 0.028953684018483677 
0.04238839739880549 -0.0050000000000000018 0.033518202309216746 
0.044632497409554148 0.023626581788990707 0.031930196873884882 
0.042359456388504545 0.023819504410351331 0.031318685526345126 
0.044643090120294514 0.029791364882399408 0.031125150857617457 
0.044623709229839804 0.026758000671184452 0.03259809853217515 
0.042359172495415466 0.027479919034397383 0.031297109651575464 
0.0446836173713707 0.030849434528768031 0.028045079775827261 
0.04232148958034547 0.028976281784524442 0.028433208106255745 
0.042396334168958556 0.0027488761629914905 0.034121396840849964 
0.044617669115820296 0.002349160536957458 0.033057147197657726 
0.042360197376156553 -0.001415462320391434 0.031375000587897689 
0.044644257662332175 -0.0010776780595371034 0.03103641766275515 
0.044671990044367615 -0.0050000000000000001 0.02892875662806086 
0.042311947034443513 0.02560438902194434 0.027707974617706691 
0.044666692026042169 0.021743395097851417 0.029331406020795359 
0.042313853921909145 0.021978715092531301 0.027852898065094646 
0.044637176751728402 0.0063355710625944226 0.03157456686864181 
0.044654028879576257 0.01025083315553613 0.030293805152204662 
0.044677954198746428 0.018680042149613305 0.028475480895271688 
0.042319710154405339 0.018096790648552463 0.02829797173480578 
0.044671189333379907 0.015452226640458235 0.028989610663127167 
0.042347277784682731 0.0064617865760535076 0.030393111635887014 
0.044675331886991798 0.0029003966251264601 0.028674776588623534 
0.042324376036907634 0.013213352241941314 0.028652578804980049 
0.044692197324521149 0.012445845370531016 0.027393003336392972 
0.042320796341950774 0.009636837831510146 0.028380521988258536 
0.028833333333333329 -0.0011538461538461566 0.042000000000000003 
0.028833333333333325 -0.0050000000000000001 0.041999999999999996 
0.028833333333333336 0.0026923076923076848 0.04200000000000001 
0.028833333333333336 0.014230769230769201 0.04200000000000001 
0.026833333333333344 0.041153846153846166 0.042000000000000016 
0.026833333333333341 0.037307692307692306 0.04200000000000001 
0.028833333333333332 0.041153846153846145 0.04200000000000001 
0.028833333333333332 0.037307692307692299 0.042000000000000003 
0.026833333333333338 0.033461538461538452 0.04200000000000001 
0.028833333333333339 0.018076923076923039 0.042000000000000016 
0.026833333333333341 0.018076923076923046 0.04200000000000001 
0.028833333333333336 0.033461538461538431 0.04200000000000001 
0.028833333333333336 0.029615384615384571 0.042000000000000016 
0.028833333333333336 0.025769230769230714 0.04200000000000001 
0.028833333333333336 0.021923076923076875 0.04200000000000001 
0.027882023275323301 0.03042247199729925 0.040167477721502191 
0.026833333333333341 0.029615384615384592 0.04200000000000001 
0.026833333333333341 0.025769230769230739 0.042000000000000016 
0.026833333333333344 0.021923076923076885 0.042000000000000016 
0.028833333333333343 0.0065384615384615303 0.042000000000000016 
0.028833333333333336 0.010384615384615367 0.04200000000000001 
0.02782550689321189 0.010420873398035071 0.040548698810772631 
0.026833333333333344 0.010384615384615372 0.042000000000000016 
0.026786586576061033 0.012537647902017703 0.038447246447305052 
0.028878635702780559 0.016053749296826184 0.038557019922010244 
0.026786711218954058 0.016316165139459667 0.03845671930717514 
0.042305350219311859 0.032609213031444692 0.027206616667701054 
0.044707961791066841 0.033543316738190762 0.026194903878920386 
0.042328009955632385 0.044999999999999998 0.028928756628060767 
0.042264770991188381 0.036727366381632778 0.024122595330316899 
0.042294975060555892 0.0410284128756895 0.026418104602247715 
0.044737420896286455 0.037244219878936169 0.023956011882229605 
0.043499860836728896 0.041108999476531113 0.02652414206447927 
0.044671990044367643 0.045000000000000019 0.028928756628060839 
0.04470206535043008 0.041222057807362045 0.026643033367314158 
0.026833333333333331 0.045000000000000005 0.041999999999999996 
0.028833333333333325 0.045000000000000005 0.041999999999999996 
0.028870070954301687 0.042260840375453836 0.039207940806404683 
0.027833303105853899 0.042381615604604288 0.039300249889109698 
0.026796140033326202 0.042255657542792403 0.039173309199458085 
0.042328009955632372 -0.0050000000000000001 0.02892875662806068 
0.026833333333333331 -0.0050000000000000001 0.041999999999999996 
0.044682431552681284 0.026156245739107891 0.028135201996222346 
0.044733968628912067 0.029629821685666448 0.02421838420268322 
0.042266762580896504 0.028620048910031132 0.024273956148133789 
0.042326326543188637 0.0025763523090815269 0.028800817282336195 
0.044703871946567962 -0.00098068112878707406 0.026505732060835199 
0.042296372684575381 -0.0012030179545775488 0.026524324027728766 
0.044735658413903992 -0.005000000000000001 0.024089960543296724 
0.04226599123560381 0.023768736637277445 0.024215333905889175 
0.044721037936181179 0.021522146980693439 0.025201116850230718 
0.042281956982518951 0.020106696448930709 0.025428730671440237 
0.044700816703257734 0.0077780819875783412 0.026737930552412206 
0.044731055665957635 0.0030672700004076023 0.024439769387220395 
0.044726836302779939 0.01619403566834313 0.024760440988724951 
0.042267209573565508 0.016339056919057182 0.024307927590978641 
0.042287217899543157 0.0066020731191322023 0.025828560365279685 
0.044739460774611703 0.011480064082628454 0.023800981129510797 
0.042267112150961066 0.011365887205373864 0.024300523473040979 
0.026833333333333341 -0.0011538461538461542 0.04200000000000001 
0.026833333333333341 0.0065384615384615381 0.04200000000000001 
0.026833333333333344 0.0026923076923076861 0.04200000000000001 
0.028870065261033969 0.00081401294086033671 0.039208373494751175 
0.028866233503448094 -0.0022920328864217475 0.039499587071277813 
0.026798099663094977 -0.0023149679386349547 0.039322241061885102 
0.02888766044902747 -0.005000000000000001 0.037871139207244643 
0.028873707839582145 0.0044081401275884637 0.038931537525089509 
0.028881065825014825 0.012306726676063509 0.038372330632206186 
0.026791713843736027 0.039197216607328944 0.038836918790604823 
0.026787780591517853 0.035689252681038695 0.038537991622023593 
0.028874635599282203 0.039165399070234475 0.038861027787885083 
0.028879709419355398 0.034905365235463344 0.038475417462322692 
0.026786790247266996 0.031503599162185224 0.038462725458958409 
0.028877700908354318 0.019974156469803977 0.038628064298404569 
0.026786396707128814 0.020000594267705438 0.03843281640845652 
0.028878783410089929 0.031006289794513628 0.03854579416649806 
0.028878090792915874 0.027283888645913086 0.038598433071726133 
0.028877633888031964 0.023509075429397595 0.038633157842903554 
0.026781049354339032 0.027778201725100982 0.038026417596432965 
0.026785088929334684 0.023673583578961412 0.038333425296102702 
0.028880389624215862 0.0083324045526398591 0.038423721892927205 
0.026784940234473569 0.0088079226863725379 0.038322124486658012 
0.026741167211354194 0.010931226051424476 0.034995374729585492 
0.026741276191971888 0.014545210098345997 0.035003657256529985 
0.028925980247100913 0.018080544788872225 0.034958834553663491 
0.028929212422636179 0.014495188439512198 0.034713189212983088 
0.026740313425771323 0.018149080453267935 0.034930487025287268 
0.027832964614020152 0.017281336799432067 0.033289941700495082 
0.044771195849283636 0.033305258052154001 0.021389115454443944 
0.044786369917819202 0.029706600151258089 0.020235886245740999 
0.04223285207448766 0.032581583443206517 0.021696757661062084 
0.042209959951035464 0.029134743241120985 0.01995695627869502 
0.042201362840106081 0.036818136043665822 0.019303575848061985 
0.042264341586096009 0.044999999999999998 0.024089960543296592 
0.042230227258251436 0.040750742451145607 0.021497271627108915 
0.04480188442496693 0.036686995116121848 0.019056783702513715 
0.044766596687660545 0.040921601953936737 0.021738651737799139 
0.044735658413903992 0.044999999999999998 0.024089960543296672 
0.026779006217639189 0.045000000000000005 0.037871139207244796 
0.028887660449027474 0.045000000000000005 0.037871139207244581 
0.028913923132494568 0.041689980611258962 0.035875175263745507 
0.02675315370710608 0.041702600740490529 0.035906348406728739 
0.042264341586096009 -0.005000000000000001 0.02408996054329644 
0.026779006217639185 -0.0050000000000000027 0.037871139207244636 
0.044760326942280278 0.024895941650769523 0.022215152386699299 
0.042218570733116197 0.025043589526327556 0.020611375716830461 
0.04225936578908291 0.0029116871633301702 0.023711799970300769 
0.04476582976775708 -0.00098435906909798295 0.021796937650462058 
0.042230465618721846 -0.00093582083213973025 0.021515387022860436 
0.044801606980055447 -0.0050000000000000001 0.019077869515785235 
0.042226407199187896 0.020098966163399883 0.021206947138280009 
0.044775748514778509 0.019754382799351804 0.021043112876833522 
0.044795696644632628 0.0030961096145628972 0.01952705500792036 
0.04476142397413941 0.0070478197314929334 0.022131777965405247 
0.044788575065425801 0.010826275375104218 0.020068295027639512 
0.044781615259199208 0.014703178075340927 0.02059724030086053 
0.042219199705812768 0.014978535491830425 0.020659177641770259 
0.042231031327123504 0.0071790373002893967 0.021558380861385902 
0.042209828797501424 0.010862241140050018 0.019946988610107751 
0.026792222337224329 0.00077266666267475478 0.03887556429571562 
0.026781855636646625 0.0050433494186484171 0.038087695051810297 
0.028904238466978593 0.0025571262719890219 0.036611209842959708 
0.026752134143846272 -0.0017564406088481867 0.035828861598983457 
0.028916723871396443 -0.0012978022055079393 0.035662319107203216 
0.028944935934527842 -0.0050000000000000018 0.03351820230921676 
0.028919884880196679 0.0057544426488337361 0.035422082438384968 
0.028937020661151266 0.010295399846863297 0.034119763085836488 
0.02675080504988098 0.033730544124015438 0.035727850457621342 
0.026735930894588946 0.03762249485935356 0.034597414655426435 
0.028936501327720188 0.037268461922924698 0.034159232426598678 
0.028931921515251868 0.032602139015524431 0.03450729817419082 
0.026732244554767172 0.030444840881957591 0.034317252828971544 
0.028923171379203503 0.021868904876354293 0.035172308513866518 
0.026739800440510209 0.021869232289078305 0.034891500145442574 
0.028926088752722397 0.028962932668658799 0.034950588126430523 
0.028922201090033215 0.025289535028521264 0.035246050490808527 
0.026738430845593707 0.025893777482781988 0.034787410931788304 
0.026734006112222604 0.0075952997128024557 0.034451131195584558 
0.02669316228506198 0.010302408008034102 0.031347000331377141 
0.026709341837958672 0.013054628838804469 0.032576646351525601 
0.028974295239589189 0.013156112798109403 0.031286895124554126 
0.028965057271334225 0.019889410287178839 0.031988980711931757 
0.026698186501730271 0.016229241823674963 0.031728840798167339 
0.028970032636035845 0.016787841894413753 0.031610852994608293 
0.026693658215580562 0.020074176610190658 0.0313846910507894 
0.044833134021761208 0.026965987014377996 0.016681814346148623 
0.044834039075913386 0.032314452198207895 0.016613030230582634 
0.042162066322289693 0.027406330415518723 0.016317040494016735 
0.043500542696550522 0.032425896314900705 0.016686930216836201 
0.042169249324647037 0.032561178736260903 0.016862948673174789 
0.042152964416348658 0.037011214190721037 0.015625295642497629 
0.042169089232497584 0.040627630718005826 0.01685078166981651 
0.042198393019944561 0.044999999999999998 0.019077869515786165 
0.044863849918964423 0.037082842983098697 0.014347406158704269 
0.044832755300586669 0.040755763941817881 0.016710597155413582 
0.04480160698005544 0.044999999999999998 0.019077869515785554 
0.026721730732138821 0.045000000000000005 0.033518202309216996 
0.028944935934527845 0.045000000000000012 0.033518202309216608 
0.028972389578644221 0.041433087461479168 0.031431725356371974 
0.026692448466139256 0.041395554789776579 0.031292750093250242 
0.04219839301994454 -0.0050000000000000018 0.019077869515785061 
0.026721730732138814 -0.005000000000000001 0.033518202309216621 
0.044829333964388318 0.022338999551432082 0.016970618706488319 
0.042167470942608927 0.022449714645195486 0.016727791638278155 
0.042195628246564906 0.0031277576408006136 0.018867746738932888 
0.042162716725884085 -0.00097224552100361227 0.016366471167190162 
0.044827702641986045 -0.0010581350990393414 0.017094599209060899 
0.04486773694510654 -0.0050000000000000027 0.014051992171902963 
0.04484738343514813 0.0028443253961449324 0.015598858928742467 
0.042167184622787512 0.017576498274937839 0.016706031331850557 
0.044832467342052255 0.017150132082437614 0.016732482004028722 
0.044831563133339351 0.007368456124016493 0.016801201866209328 
0.044833145593872997 0.012330355963448657 0.01668093486565279 
0.042162765860611323 0.012676046883405796 0.016370205406460437 
0.042161556335445945 0.0074209280684377548 0.016278281493891628 
0.026729667612877889 0.002748955891177741 0.034121405245386156 
0.02895100653006337 0.0023494323686482623 0.033056837048516696 
0.026693531095691368 -0.0014162448979662917 0.031375029939210791 
0.028977500954293845 -0.0010710816515562274 0.031043260807000542 
0.029005323377700946 -0.0050000000000000018 0.028928756628060662 
0.02897052269932536 0.0063442385444730893 0.031573608184605334 
0.028987396874490652 0.01025034011760162 0.030291170872043423 
0.026682348464049727 0.030620155743414031 0.030525149934446022 
0.02669594740617701 0.033858224087142307 0.03155866953611932 
0.028988191522952209 0.03373133647586523 0.030230777588964988 
0.026665507220727018 0.037384641083470838 0.029245215441919895 
0.029005943291002877 0.037440067253677323 0.028881643217114315 
0.028976249327983553 0.029813635753815654 0.031138384406582831 
0.026692496015453013 0.027480291340586761 0.031296363841095749 
0.026693185051008411 0.023819838790310008 0.031348730543305919 
0.028965848854947598 0.023628777448083227 0.031928820357315216 
0.028957046118025156 0.026757378786778745 0.032597828363420844 
0.029017229416549918 0.0308809555949838 0.028023897675538947 
0.02668061030222077 0.0064618658859706985 0.030393049635444886 
0.029008555196062994 0.0029237125454881796 0.02868313843254499 
0.02665481661913614 0.028976359932798068 0.028432729721013249 
0.029000028112426107 0.021743773134631755 0.029331196788948462 
0.026654127299076062 0.0096372299451977662 0.028380341396447233 
0.026657706090584495 0.013213474704435868 0.028652329551088297 
0.029025516291896668 0.012446827649002498 0.027394095149185935 
0.029004508044335617 0.015452979682449939 0.028990721963825693 
0.026645276406643856 0.025595401442819306 0.027707673571599884 
0.029011343945414422 0.018681502731561203 0.028471193481836698 
0.026652982553933051 0.018092633498955693 0.028293340765578545 
0.026647174332717283 0.021969476547852401 0.027851915953180133 
0.011166666666666668 0.014230769230769236 0.04200000000000001 
0.044891407370039736 0.03330579914140288 0.012253039876980173 
0.044887404547863018 0.024645743731685047 0.012557254362411091 
0.044886994655041354 0.029506540711761411 0.012588406216857138 
0.042110667076529801 0.024924119432440942 0.012410697816264443 
0.042108464376844262 0.029742186768470655 0.012243292640163958 
0.042102888605259681 0.034684492831064007 0.011819533999735492 
0.044938875034366076 0.037239844156090232 0.0086454973881784618 
0.042100350449629953 0.040395779773683735 0.011626634171876421 
0.042132263054893461 0.044999999999999991 0.014051992171903052 
0.044949470018965369 0.041710964569368882 0.0078402785586319714 
0.044898161174138126 0.041304040381072847 0.01173975076550241 
0.04486773694510654 0.045000000000000005 0.014051992171902986 
0.02666134328896572 0.045000000000000012 0.028928756628061096 
0.02900532337770095 0.045000000000000005 0.028928756628060479 
0.011166666666666665 0.041153846153846152 0.041999999999999996 
0.013166666666666667 0.041153846153846152 0.04200000000000001 
0.029035443852348505 0.04116928949624872 0.026639600554846557 
0.027833187163205823 0.041098040660879409 0.026524059215059868 
0.02662832026810524 0.041030833962472285 0.026419007042664512 
0.042132263054893475 -0.0050000000000000027 0.01405199217190309 
0.026661343288965716 -0.0050000000000000027 0.028928756628060531 
0.044933868472553269 -0.0050000000000000018 0.00902599608595148 
0.013166666666666667 -0.0011538461538461516 0.042000000000000016 
0.013166666666666665 -0.0050000000000000001 0.041999999999999996 
0.044886059151849435 0.02 0.012659504459443544 
0.044888170287341822 0.014924716727239251 0.012499058162021841 
0.042113940848150573 0.020000000000000004 0.012659504459443555 
0.042099779769583838 -0.0014481226209992449 0.011583262488371642 
0.042132626857763401 0.0027808130083287336 0.01407964119001876 
0.04489901887537559 -0.00042394903807478152 0.011674565471455518 
0.044891958204899822 0.0049639152322729588 0.012211176427613803 
0.043500936005540856 -0.001251277450631056 0.0084728374788212695 
0.044956777362651315 -0.0012360426826346421 0.0072849204385000421 
0.042110525696318284 0.015103916252108641 0.012399952920189644 
0.044886596815999796 0.0099685276929273488 0.01261864198401599 
0.042108207694991261 0.010350710987052975 0.012223784819335493 
0.04210481869765078 0.0064071458956039707 0.011966221021458915 
0.04494302957592472 0.012499999999999999 0.0083297522297217739 
0.013166666666666669 0.01807692307692307 0.04200000000000001 
0.011166666666666667 0.01807692307692307 0.04200000000000001 
0.011166666666666668 0.037307692307692319 0.04200000000000001 
0.01316666666666667 0.037307692307692313 0.04200000000000001 
0.011166666666666665 0.033461538461538459 0.04200000000000001 
0.011166666666666668 0.021923076923076924 0.04200000000000001 
0.013166666666666667 0.021923076923076906 0.04200000000000001 
0.011166666666666668 0.029615384615384613 0.04200000000000001 
0.011166666666666667 0.025769230769230766 0.04200000000000001 
0.013166666666666667 0.025769230769230756 0.042000000000000016 
0.012217612648774367 0.03040364408356128 0.040166518049503233 
0.013166666666666667 0.033461538461538452 0.04200000000000001 
0.013166666666666667 0.029615384615384606 0.042000000000000016 
0.026659659925895661 0.0025742514105469589 0.028800821034736631 
0.029037377368216457 -0.00096373278858844435 0.026492653348881852 
0.026629552481569816 -0.0012098329345309859 0.026512655265972733 
0.02906899174723732 -0.0050000000000000018 0.024089960543296485 
0.029033595960366136 0.0078009679604200983 0.026780040345506229 
0.02906434139698106 0.0031325347929746167 0.024443387162772227 
0.026638679842652835 0.032608829425761647 0.027206334708281973 
0.029041591610686982 0.033531144930866889 0.026172370921121988 
0.026598063394548118 0.036727357127792945 0.024119484652323209 
0.029070425306953234 0.037240392019463567 0.023981010004886914 
0.029015754078215182 0.026155959960922959 0.028136023388978894 
0.029066178421418492 0.029656896561326522 0.024303773305527417 
0.045000000000000005 0.024999999999999994 0 
0.045000000000000005 0.024999999999999994 0.0039999999999999992 
0.04494302957592472 0.022499999999999996 0.0083297522297217739 
0.042056970424075288 0.022500000000000003 0.0083297522297217756 
0.045000000000000005 0.02 0 
0.026620545262598872 0.0066023445285827665 0.025828106624180905 
0.026600093779164898 0.02862041937408559 0.024273793883198877 
0.029054380257261953 0.021528605663397624 0.02520043378142451 
0.029060193209855048 0.016195696971189544 0.024758649384349251 
0.02907272332288529 0.011483481121026285 0.023806360794050876 
0.026600442674632074 0.011366460754957222 0.024300309938704179 
0.02660057816326367 0.016338680624081899 0.024310607074705181 
0.026598808034322102 0.023759973952025556 0.024176077275146465 
0.026615347574047172 0.020049002367319334 0.025433082294251435 
0.013166666666666667 0.0026923076923076961 0.04200000000000001 
0.013166666666666665 0.014230769230769217 0.04200000000000001 
0.013166666666666667 0.010384615384615383 0.04200000000000001 
0.013166666666666669 0.006538461538461539 0.04200000000000001 
0.012156974140088523 0.010418827692090947 0.040547906762823743 
0.011166666666666667 0.010384615384615384 0.04200000000000001 
0.011120491457375283 0.016320509652313468 0.038490684093855081 
0.013211963346543345 0.01605375149603987 0.038557452329372188 
0.01112052110641493 0.012533613375654638 0.038492937420868123 
0.011166666666666665 0.045000000000000005 0.041999999999999996 
0.013166666666666665 0.045000000000000005 0.041999999999999996 
0.044940962242876525 0.031808021057110433 0.0084868695413842961 
0.044944643992054986 0.027298344484682616 0.008207056603821615 
0.042056970424075288 0.027500000000000004 0.0083297522297217756 
0.042055060693182551 0.032382381018229323 0.0081846126818738846 
0.045000000000000012 0.035000000000000003 0.0039999999999999992 
0.045000000000000005 0.029999999999999999 0.0039999999999999992 
0.045000000000000012 0.035000000000000003 0 
0.045000000000000005 0.029999999999999999 0 
0.013203403833170422 0.042260817571214318 0.039207975345714373 
0.012166636464054546 0.042381904958865395 0.03930027094401535 
0.011129474242095681 0.042255784407831509 0.03917337573260523 
0.045000000000000005 0.039999999999999994 0.0039999999999999992 
0.042046668784350344 0.0372968429667958 0.0075468276106258406 
0.042042046213695707 0.041433749337357016 0.0071955122408736086 
0.042066131527446732 0.045000000000000005 0.0090259960859515268 
0.045000000000000005 0.045000000000000005 0.0040000000000000001 
0.043498939529082639 0.042893089238340731 0.0061359728714260797 
0.044933868472553276 0.045000000000000005 0.0090259960859514921 
0.045000000000000005 0.039999999999999994 0 
0.045000000000000005 0.042500000000000003 0.0019999999999999996 
0.02659767491942935 0.045000000000000005 0.024089960543297019 
0.029068991747237323 0.044999999999999998 0.024089960543296145 
0.045000000000000005 0.045000000000000005 0 
0.011125048141715582 0.039200584254600948 0.038836992103717757 
0.011121523746206384 0.035685701551309637 0.038569138045018637 
0.013207968207545412 0.039165435998205385 0.038861082893215111 
0.011166666666666665 -0.0050000000000000001 0.041999999999999996 
0.029099208587166515 0.040803963251611716 0.021793480708677846 
0.026563536985913176 0.040747382806318719 0.021495477596067965 
0.043500087662634322 -0.0025050724567619847 0.0062383698097347373 
0.042042898597344176 -0.0018998104212596279 0.0072602933981572391 
0.042066131527446732 -0.0050000000000000018 0.0090259960859515424 
0.02659767491942934 -0.0050000000000000018 0.024089960543296266 
0.045000000000000005 -0.0050000000000000001 0.0040000000000000001 
0.045000000000000005 -0.0024999999999999966 0.002 
0.011166666666666665 -0.0011538461538461542 0.04200000000000001 
0.011166666666666667 0.0065384615384615468 0.04200000000000001 
0.011166666666666665 0.0026923076923076922 0.042000000000000003 
0.013199566868495929 -0.0022920643352501513 0.03949958466097591 
0.013203398356710552 0.00081401381525875042 0.039208391556664585 
0.011131433235991164 -0.0023141399946839912 0.039322259268661855 
0.01322099378236081 -0.005000000000000001 0.037871139207244706 
0.045000000000000019 5.4210108624275222e-19 0.0040000000000000001 
0.045000000000000019 5.4210108624275222e-19 0 
0.04494302957592472 0.017500000000000002 0.0083297522297217739 
0.045000000000000005 0.02 0.0039999999999999992 
0.042056970424075288 0.017500000000000002 0.0083297522297217756 