Variables=x,y,z
Zone n=484, e=1800, f=fepoint, et=tetrahedron
0 0 0.29999999999999999 
0 0 0.20000000000000001 
0 0 0.10000000000000001 
0 0 0 
0 0.099999999999999978 0.29999999999999999 
0 0.099999999999999978 0.20000000000000001 
0.099999999999999978 0 0.29999999999999999 
0.099999999999999978 0 0.20000000000000001 
0 0.099999999999999978 0.10000000000000001 
0 0.099999999999999978 0 
0.099999999999999978 0 0.10000000000000001 
0.099999999999999978 0 0 
0 0.20000000000000001 0.29999999999999999 
0 0.20000000000000001 0.20000000000000001 
0.099999999999999978 0.099999999999999978 0.29999999999999999 
0 0.20000000000000001 0.10000000000000001 
0.099999999999999978 0.099999999999999978 0.20000000000000001 
0.20000000000000001 0 0.29999999999999999 
0.20000000000000001 0 0.20000000000000001 
0.099999999999999978 0.099999999999999978 0.10000000000000001 
0 0.20000000000000001 0 
0.099999999999999978 0.099999999999999978 0 
0.20000000000000001 0 0.10000000000000001 
0.20000000000000001 0 0 
0 0.29999999999999999 0.29999999999999999 
0 0.29999999999999999 0.20000000000000001 
0.099999999999999978 0.20000000000000001 0.29999999999999999 
0 0.29999999999999999 0.10000000000000001 
0.099999999999999978 0.20000000000000001 0.20000000000000001 
0.20000000000000001 0.099999999999999978 0.29999999999999999 
0 0.29999999999999999 0 
0.099999999999999978 0.20000000000000001 0.10000000000000001 
0.20000000000000001 0.099999999999999978 0.20000000000000001 
0.29999999999999999 0 0.29999999999999999 
0.29999999999999999 0 0.20000000000000001 
0.20000000000000001 0.099999999999999978 0.10000000000000001 
0.099999999999999978 0.20000000000000001 0 
0.20000000000000001 0.099999999999999978 0 
0.29999999999999999 0 0.10000000000000001 
0.29999999999999999 0 0 
0 0.40000000000000002 0.29999999999999999 
0 0.40000000000000002 0.20000000000000001 
0.099999999999999978 0.29999999999999999 0.29999999999999999 
0 0.40000000000000002 0.10000000000000001 
0.099999999999999978 0.29999999999999999 0.20000000000000001 
0.20000000000000001 0.20000000000000001 0.29999999999999999 
0 0.40000000000000002 0 
0.099999999999999978 0.29999999999999999 0.10000000000000001 
0.20000000000000001 0.20000000000000001 0.20000000000000001 
0.29999999999999999 0.099999999999999978 0.29999999999999999 
0.099999999999999978 0.29999999999999999 0 
0.20000000000000001 0.20000000000000001 0.10000000000000001 
0.29999999999999999 0.099999999999999978 0.20000000000000001 
0.40000000000000002 0 0.29999999999999999 
0.40000000000000002 0 0.20000000000000001 
0.29999999999999999 0.099999999999999978 0.10000000000000001 
0.20000000000000001 0.20000000000000001 0 
0.29999999999999999 0.099999999999999978 0 
0.40000000000000002 0 0.10000000000000001 
0.40000000000000002 0 0 
0 0.5 0.29999999999999999 
0 0.5 0.20000000000000001 
0.099999999999999978 0.40000000000000002 0.29999999999999999 
0 0.5 0.10000000000000001 
0.099999999999999978 0.40000000000000002 0.20000000000000001 
0.20000000000000001 0.29999999999999999 0.29999999999999999 
0 0.5 0 
0.099999999999999978 0.40000000000000002 0.10000000000000001 
0.20000000000000001 0.29999999999999999 0.20000000000000001 
0.29999999999999999 0.20000000000000001 0.29999999999999999 
0.099999999999999978 0.40000000000000002 0 
0.20000000000000001 0.29999999999999999 0.10000000000000001 
0.29999999999999999 0.20000000000000001 0.20000000000000001 
0.40000000000000002 0.099999999999999978 0.29999999999999999 
0.20000000000000001 0.29999999999999999 0 
0.29999999999999999 0.20000000000000001 0.10000000000000001 
0.40000000000000002 0.099999999999999978 0.20000000000000001 
0.5 0 0.29999999999999999 
0.5 0 0.20000000000000001 
0.40000000000000002 0.099999999999999978 0.10000000000000001 
0.29999999999999999 0.20000000000000001 0 
0.40000000000000002 0.099999999999999978 0 
0.5 0 0.10000000000000001 
0.5 0 0 
0 0.59999999999999998 0.29999999999999999 
0 0.59999999999999998 0.20000000000000001 
0.099999999999999978 0.5 0.29999999999999999 
0 0.59999999999999998 0.10000000000000001 
0.099999999999999978 0.5 0.20000000000000001 
0.20000000000000001 0.40000000000000002 0.29999999999999999 
0 0.59999999999999998 0 
0.099999999999999978 0.5 0.10000000000000001 
0.20000000000000001 0.40000000000000002 0.20000000000000001 
0.29999999999999999 0.29999999999999999 0.29999999999999999 
0.099999999999999978 0.5 0 
0.20000000000000001 0.40000000000000002 0.10000000000000001 
0.29999999999999999 0.29999999999999999 0.20000000000000001 
0.40000000000000002 0.20000000000000001 0.29999999999999999 
0.20000000000000001 0.40000000000000002 0 
0.29999999999999999 0.29999999999999999 0.10000000000000001 
0.40000000000000002 0.20000000000000001 0.20000000000000001 
0.5 0.099999999999999978 0.29999999999999999 
0.29999999999999999 0.29999999999999999 0 
0.40000000000000002 0.20000000000000001 0.10000000000000001 
0.5 0.099999999999999978 0.20000000000000001 
0.59999999999999998 0 0.29999999999999999 
0.59999999999999998 0 0.20000000000000001 
0.5 0.099999999999999978 0.10000000000000001 
0.40000000000000002 0.20000000000000001 0 
0.5 0.099999999999999978 0 
0.59999999999999998 0 0.10000000000000001 
0.59999999999999998 0 0 
0 0.69999999999999996 0.29999999999999999 
0 0.69999999999999996 0.20000000000000001 
0.099999999999999978 0.59999999999999998 0.29999999999999999 
0 0.69999999999999996 0.10000000000000001 
0.099999999999999978 0.59999999999999998 0.20000000000000001 
0.20000000000000001 0.5 0.29999999999999999 
0 0.69999999999999996 0 
0.099999999999999978 0.59999999999999998 0.10000000000000001 
0.20000000000000001 0.5 0.20000000000000001 
0.29999999999999999 0.40000000000000002 0.29999999999999999 
0.099999999999999978 0.59999999999999998 0 
0.20000000000000001 0.5 0.10000000000000001 
0.29999999999999999 0.40000000000000002 0.20000000000000001 
0.40000000000000002 0.29999999999999999 0.29999999999999999 
0.20000000000000001 0.5 0 
0.29999999999999999 0.40000000000000002 0.10000000000000001 
0.40000000000000002 0.29999999999999999 0.20000000000000001 
0.5 0.20000000000000001 0.29999999999999999 
0.29999999999999999 0.40000000000000002 0 
0.40000000000000002 0.29999999999999999 0.10000000000000001 
0.5 0.20000000000000001 0.20000000000000001 
0.59999999999999998 0.099999999999999978 0.29999999999999999 
0.40000000000000002 0.29999999999999999 0 
0.5 0.20000000000000001 0.10000000000000001 
0.59999999999999998 0.099999999999999978 0.20000000000000001 
0.69999999999999996 0 0.29999999999999999 
0.69999999999999996 0 0.20000000000000001 
0.59999999999999998 0.099999999999999978 0.10000000000000001 
0.5 0.20000000000000001 0 
0.59999999999999998 0.099999999999999978 0 
0.69999999999999996 0 0.10000000000000001 
0.69999999999999996 0 0 
0 0.80000000000000004 0.29999999999999999 
0 0.90000000000000002 0.29999999999999999 
0 1 0.29999999999999999 
0.099999999999999978 0.69999999999999996 0.29999999999999999 
0 0.80000000000000004 0.20000000000000001 
0 0.80000000000000004 0.10000000000000001 
0.099999999999999978 0.69999999999999996 0.20000000000000001 
0.20000000000000001 0.59999999999999998 0.29999999999999999 
0 0.80000000000000004 0 
0.099999999999999978 0.69999999999999996 0.10000000000000001 
0.20000000000000001 0.59999999999999998 0.20000000000000001 
0.29999999999999999 0.5 0.29999999999999999 
0.099999999999999978 0.69999999999999996 0 
0.20000000000000001 0.59999999999999998 0.10000000000000001 
0.29999999999999999 0.5 0.20000000000000001 
0.40000000000000002 0.40000000000000002 0.29999999999999999 
0.20000000000000001 0.59999999999999998 0 
0.29999999999999999 0.5 0.10000000000000001 
0.40000000000000002 0.40000000000000002 0.20000000000000001 
0.5 0.29999999999999999 0.29999999999999999 
0.29999999999999999 0.5 0 
0.40000000000000002 0.40000000000000002 0.10000000000000001 
0.5 0.29999999999999999 0.20000000000000001 
0.59999999999999998 0.20000000000000001 0.29999999999999999 
0.40000000000000002 0.40000000000000002 0 
0.5 0.29999999999999999 0.10000000000000001 
0.59999999999999998 0.20000000000000001 0.20000000000000001 
0.69999999999999996 0.099999999999999978 0.29999999999999999 
0.5 0.29999999999999999 0 
0.59999999999999998 0.20000000000000001 0.10000000000000001 
0.69999999999999996 0.099999999999999978 0.20000000000000001 
0.80000000000000004 0 0.29999999999999999 
0.80000000000000004 0 0.20000000000000001 
0.69999999999999996 0.099999999999999978 0.10000000000000001 
0.59999999999999998 0.20000000000000001 0 
0.69999999999999996 0.099999999999999978 0 
0.80000000000000004 0 0.10000000000000001 
0.80000000000000004 0 0 
0 0.90000000000000002 0.20000000000000001 
0.099999999999999978 0.80000000000000004 0.29999999999999999 
0 1 0.20000000000000001 
0.099999999999999978 0.90000000000000002 0.29999999999999999 
0.099999999999999978 1 0.29999999999999999 
0.20000000000000001 0.69999999999999996 0.29999999999999999 
0.099999999999999978 0.80000000000000004 0.20000000000000001 
0 0.90000000000000002 0.10000000000000001 
0 0.90000000000000002 0 
0.099999999999999978 0.80000000000000004 0.10000000000000001 
0.20000000000000001 0.69999999999999996 0.20000000000000001 
0.29999999999999999 0.59999999999999998 0.29999999999999999 
0.099999999999999978 0.80000000000000004 0 
0.20000000000000001 0.69999999999999996 0.10000000000000001 
0.29999999999999999 0.59999999999999998 0.20000000000000001 
0.40000000000000002 0.5 0.29999999999999999 
0.20000000000000001 0.69999999999999996 0 
0.29999999999999999 0.59999999999999998 0.10000000000000001 
0.40000000000000002 0.5 0.20000000000000001 
0.5 0.40000000000000002 0.29999999999999999 
0.29999999999999999 0.59999999999999998 0 
0.40000000000000002 0.5 0.10000000000000001 
0.5 0.40000000000000002 0.20000000000000001 
0.59999999999999998 0.29999999999999999 0.29999999999999999 
0.40000000000000002 0.5 0 
0.5 0.40000000000000002 0.10000000000000001 
0.59999999999999998 0.29999999999999999 0.20000000000000001 
0.69999999999999996 0.20000000000000001 0.29999999999999999 
0.5 0.40000000000000002 0 
0.59999999999999998 0.29999999999999999 0.10000000000000001 
0.69999999999999996 0.20000000000000001 0.20000000000000001 
0.80000000000000004 0.099999999999999978 0.29999999999999999 
0.59999999999999998 0.29999999999999999 0 
0.69999999999999996 0.20000000000000001 0.10000000000000001 
0.80000000000000004 0.099999999999999978 0.20000000000000001 
0.90000000000000002 0 0.29999999999999999 
0.90000000000000002 0 0.20000000000000001 
0.80000000000000004 0.099999999999999978 0.10000000000000001 
0.69999999999999996 0.20000000000000001 0 
0.80000000000000004 0.099999999999999978 0 
0.90000000000000002 0 0.10000000000000001 
0.90000000000000002 0 0 
0 1 0.10000000000000001 
0.099999999999999978 0.90000000000000002 0.20000000000000001 
0.20000000000000001 0.80000000000000004 0.29999999999999999 
0.099999999999999978 1 0.20000000000000001 
0.20000000000000001 0.90000000000000002 0.29999999999999999 
0.20000000000000001 1 0.29999999999999999 
0.29999999999999999 0.69999999999999996 0.29999999999999999 
0.20000000000000001 0.80000000000000004 0.20000000000000001 
0.099999999999999978 0.90000000000000002 0.10000000000000001 
0 1 0 
0.099999999999999978 0.90000000000000002 0 
0.20000000000000001 0.80000000000000004 0.10000000000000001 
0.29999999999999999 0.69999999999999996 0.20000000000000001 
0.40000000000000002 0.59999999999999998 0.29999999999999999 
0.20000000000000001 0.80000000000000004 0 
0.29999999999999999 0.69999999999999996 0.10000000000000001 
0.40000000000000002 0.59999999999999998 0.20000000000000001 
0.5 0.5 0.29999999999999999 
0.29999999999999999 0.69999999999999996 0 
0.40000000000000002 0.59999999999999998 0.10000000000000001 
0.5 0.5 0.20000000000000001 
0.59999999999999998 0.40000000000000002 0.29999999999999999 
0.40000000000000002 0.59999999999999998 0 
0.5 0.5 0.10000000000000001 
0.59999999999999998 0.40000000000000002 0.20000000000000001 
0.69999999999999996 0.29999999999999999 0.29999999999999999 
0.5 0.5 0 
0.59999999999999998 0.40000000000000002 0.10000000000000001 
0.69999999999999996 0.29999999999999999 0.20000000000000001 
0.80000000000000004 0.20000000000000001 0.29999999999999999 
0.59999999999999998 0.40000000000000002 0 
0.69999999999999996 0.29999999999999999 0.10000000000000001 
0.80000000000000004 0.20000000000000001 0.20000000000000001 
0.90000000000000002 0.099999999999999978 0.29999999999999999 
0.69999999999999996 0.29999999999999999 0 
0.80000000000000004 0.20000000000000001 0.10000000000000001 
0.90000000000000002 0.099999999999999978 0.20000000000000001 
1 0 0.29999999999999999 
1 0 0.20000000000000001 
0.90000000000000002 0.099999999999999978 0.10000000000000001 
0.80000000000000004 0.20000000000000001 0 
0.90000000000000002 0.099999999999999978 0 
1 0 0.10000000000000001 
1 0 0 
0.099999999999999978 1 0.10000000000000001 
0.20000000000000001 0.90000000000000002 0.20000000000000001 
0.29999999999999999 0.80000000000000004 0.29999999999999999 
0.20000000000000001 1 0.20000000000000001 
0.29999999999999999 0.90000000000000002 0.29999999999999999 
0.29999999999999999 1 0.29999999999999999 
0.40000000000000002 0.69999999999999996 0.29999999999999999 
0.29999999999999999 0.80000000000000004 0.20000000000000001 
0.20000000000000001 0.90000000000000002 0.10000000000000001 
0.099999999999999978 1 0 
0.20000000000000001 0.90000000000000002 0 
0.29999999999999999 0.80000000000000004 0.10000000000000001 
0.40000000000000002 0.69999999999999996 0.20000000000000001 
0.5 0.59999999999999998 0.29999999999999999 
0.29999999999999999 0.80000000000000004 0 
0.40000000000000002 0.69999999999999996 0.10000000000000001 
0.5 0.59999999999999998 0.20000000000000001 
0.59999999999999998 0.5 0.29999999999999999 
0.40000000000000002 0.69999999999999996 0 
0.5 0.59999999999999998 0.10000000000000001 
0.59999999999999998 0.5 0.20000000000000001 
0.69999999999999996 0.40000000000000002 0.29999999999999999 
0.5 0.59999999999999998 0 
0.59999999999999998 0.5 0.10000000000000001 
0.69999999999999996 0.40000000000000002 0.20000000000000001 
0.80000000000000004 0.29999999999999999 0.29999999999999999 
0.59999999999999998 0.5 0 
0.69999999999999996 0.40000000000000002 0.10000000000000001 
0.80000000000000004 0.29999999999999999 0.20000000000000001 
0.90000000000000002 0.20000000000000001 0.29999999999999999 
0.69999999999999996 0.40000000000000002 0 
0.80000000000000004 0.29999999999999999 0.10000000000000001 
0.90000000000000002 0.20000000000000001 0.20000000000000001 
1 0.099999999999999978 0.29999999999999999 
0.80000000000000004 0.29999999999999999 0 
0.90000000000000002 0.20000000000000001 0.10000000000000001 
1 0.099999999999999978 0.20000000000000001 
1 0.099999999999999978 0.10000000000000001 
0.90000000000000002 0.20000000000000001 0 
1 0.099999999999999978 0 
0.20000000000000001 1 0.10000000000000001 
0.29999999999999999 0.90000000000000002 0.20000000000000001 
0.40000000000000002 0.80000000000000004 0.29999999999999999 
0.29999999999999999 1 0.20000000000000001 
0.40000000000000002 0.90000000000000002 0.29999999999999999 
0.40000000000000002 1 0.29999999999999999 
0.5 0.69999999999999996 0.29999999999999999 
0.40000000000000002 0.80000000000000004 0.20000000000000001 
0.29999999999999999 0.90000000000000002 0.10000000000000001 
0.20000000000000001 1 0 
0.29999999999999999 0.90000000000000002 0 
0.40000000000000002 0.80000000000000004 0.10000000000000001 
0.5 0.69999999999999996 0.20000000000000001 
0.59999999999999998 0.59999999999999998 0.29999999999999999 
0.40000000000000002 0.80000000000000004 0 
0.5 0.69999999999999996 0.10000000000000001 
0.59999999999999998 0.59999999999999998 0.20000000000000001 
0.69999999999999996 0.5 0.29999999999999999 
0.5 0.69999999999999996 0 
0.59999999999999998 0.59999999999999998 0.10000000000000001 
0.69999999999999996 0.5 0.20000000000000001 
0.80000000000000004 0.40000000000000002 0.29999999999999999 
0.59999999999999998 0.59999999999999998 0 
0.69999999999999996 0.5 0.10000000000000001 
0.80000000000000004 0.40000000000000002 0.20000000000000001 
0.90000000000000002 0.29999999999999999 0.29999999999999999 
0.69999999999999996 0.5 0 
0.80000000000000004 0.40000000000000002 0.10000000000000001 
0.90000000000000002 0.29999999999999999 0.20000000000000001 
1 0.20000000000000001 0.29999999999999999 
0.80000000000000004 0.40000000000000002 0 
0.90000000000000002 0.29999999999999999 0.10000000000000001 
1 0.20000000000000001 0.20000000000000001 
0.90000000000000002 0.29999999999999999 0 
1 0.20000000000000001 0.10000000000000001 
1 0.20000000000000001 0 
0.29999999999999999 1 0.10000000000000001 
0.40000000000000002 0.90000000000000002 0.20000000000000001 
0.5 0.80000000000000004 0.29999999999999999 
0.40000000000000002 1 0.20000000000000001 
0.5 0.90000000000000002 0.29999999999999999 
0.5 1 0.29999999999999999 
0.59999999999999998 0.69999999999999996 0.29999999999999999 
0.5 0.80000000000000004 0.20000000000000001 
0.40000000000000002 0.90000000000000002 0.10000000000000001 
0.29999999999999999 1 0 
0.40000000000000002 0.90000000000000002 0 
0.5 0.80000000000000004 0.10000000000000001 
0.59999999999999998 0.69999999999999996 0.20000000000000001 
0.69999999999999996 0.59999999999999998 0.29999999999999999 
0.5 0.80000000000000004 0 
0.59999999999999998 0.69999999999999996 0.10000000000000001 
0.69999999999999996 0.59999999999999998 0.20000000000000001 
0.80000000000000004 0.5 0.29999999999999999 
0.59999999999999998 0.69999999999999996 0 
0.69999999999999996 0.59999999999999998 0.10000000000000001 
0.80000000000000004 0.5 0.20000000000000001 
0.90000000000000002 0.40000000000000002 0.29999999999999999 
0.69999999999999996 0.59999999999999998 0 
0.80000000000000004 0.5 0.10000000000000001 
0.90000000000000002 0.40000000000000002 0.20000000000000001 
1 0.29999999999999999 0.29999999999999999 
0.80000000000000004 0.5 0 
0.90000000000000002 0.40000000000000002 0.10000000000000001 
1 0.29999999999999999 0.20000000000000001 
0.90000000000000002 0.40000000000000002 0 
1 0.29999999999999999 0.10000000000000001 
1 0.29999999999999999 0 
0.40000000000000002 1 0.10000000000000001 
0.5 0.90000000000000002 0.20000000000000001 
0.59999999999999998 0.80000000000000004 0.29999999999999999 
0.5 1 0.20000000000000001 
0.59999999999999998 0.90000000000000002 0.29999999999999999 
0.59999999999999998 1 0.29999999999999999 
0.69999999999999996 0.69999999999999996 0.29999999999999999 
0.59999999999999998 0.80000000000000004 0.20000000000000001 
0.5 0.90000000000000002 0.10000000000000001 
0.40000000000000002 1 0 
0.5 0.90000000000000002 0 
0.59999999999999998 0.80000000000000004 0.10000000000000001 
0.69999999999999996 0.69999999999999996 0.20000000000000001 
0.80000000000000004 0.59999999999999998 0.29999999999999999 
0.59999999999999998 0.80000000000000004 0 
0.69999999999999996 0.69999999999999996 0.10000000000000001 
0.80000000000000004 0.59999999999999998 0.20000000000000001 
0.90000000000000002 0.5 0.29999999999999999 
0.69999999999999996 0.69999999999999996 0 
0.80000000000000004 0.59999999999999998 0.10000000000000001 
0.90000000000000002 0.5 0.20000000000000001 
1 0.40000000000000002 0.29999999999999999 
0.80000000000000004 0.59999999999999998 0 
0.90000000000000002 0.5 0.10000000000000001 
1 0.40000000000000002 0.20000000000000001 
0.90000000000000002 0.5 0 
1 0.40000000000000002 0.10000000000000001 
1 0.40000000000000002 0 
0.5 1 0.10000000000000001 
0.59999999999999998 0.90000000000000002 0.20000000000000001 
0.69999999999999996 0.80000000000000004 0.29999999999999999 
0.59999999999999998 1 0.20000000000000001 
0.69999999999999996 0.90000000000000002 0.29999999999999999 
0.69999999999999996 1 0.29999999999999999 
0.80000000000000004 0.69999999999999996 0.29999999999999999 
0.69999999999999996 0.80000000000000004 0.20000000000000001 
0.59999999999999998 0.90000000000000002 0.10000000000000001 
0.5 1 0 
0.59999999999999998 0.90000000000000002 0 
0.69999999999999996 0.80000000000000004 0.10000000000000001 
0.80000000000000004 0.69999999999999996 0.20000000000000001 
0.90000000000000002 0.59999999999999998 0.29999999999999999 
0.69999999999999996 0.80000000000000004 0 
0.80000000000000004 0.69999999999999996 0.10000000000000001 
0.90000000000000002 0.59999999999999998 0.20000000000000001 
1 0.5 0.29999999999999999 
0.80000000000000004 0.69999999999999996 0 
0.90000000000000002 0.59999999999999998 0.10000000000000001 
1 0.5 0.20000000000000001 
0.90000000000000002 0.59999999999999998 0 
1 0.5 0.10000000000000001 
1 0.5 0 
0.59999999999999998 1 0.10000000000000001 
0.69999999999999996 0.90000000000000002 0.20000000000000001 
0.80000000000000004 0.80000000000000004 0.29999999999999999 
0.69999999999999996 1 0.20000000000000001 
0.80000000000000004 0.90000000000000002 0.29999999999999999 
0.80000000000000004 1 0.29999999999999999 
0.90000000000000002 0.69999999999999996 0.29999999999999999 
0.80000000000000004 0.80000000000000004 0.20000000000000001 
0.69999999999999996 0.90000000000000002 0.10000000000000001 
0.59999999999999998 1 0 
0.69999999999999996 0.90000000000000002 0 
0.80000000000000004 0.80000000000000004 0.10000000000000001 
0.90000000000000002 0.69999999999999996 0.20000000000000001 
1 0.59999999999999998 0.29999999999999999 
0.80000000000000004 0.80000000000000004 0 
0.90000000000000002 0.69999999999999996 0.10000000000000001 
1 0.59999999999999998 0.20000000000000001 
0.90000000000000002 0.69999999999999996 0 
1 0.59999999999999998 0.10000000000000001 
1 0.59999999999999998 0 
0.69999999999999996 1 0.10000000000000001 
0.80000000000000004 0.90000000000000002 0.20000000000000001 
0.90000000000000002 0.80000000000000004 0.29999999999999999 
0.80000000000000004 1 0.20000000000000001 
0.90000000000000002 0.90000000000000002 0.29999999999999999 
0.90000000000000002 1 0.29999999999999999 
1 0.69999999999999996 0.29999999999999999 
0.90000000000000002 0.80000000000000004 0.20000000000000001 
0.80000000000000004 0.90000000000000002 0.10000000000000001 
0.69999999999999996 1 0 
0.80000000000000004 0.90000000000000002 0 
0.90000000000000002 0.80000000000000004 0.10000000000000001 
1 0.69999999999999996 0.20000000000000001 
0.90000000000000002 0.80000000000000004 0 
1 0.69999999999999996 0.10000000000000001 
1 0.69999999999999996 0 
0.80000000000000004 1 0.10000000000000001 
0.90000000000000002 0.90000000000000002 0.20000000000000001 
1 0.80000000000000004 0.29999999999999999 
0.90000000000000002 1 0.20000000000000001 
1 0.90000000000000002 0.29999999999999999 
1 1 0.29999999999999999 
1 0.80000000000000004 0.20000000000000001 
0.90000000000000002 0.90000000000000002 0.10000000000000001 
0.80000000000000004 1 0 
0.90000000000000002 0.90000000000000002 0 
1 0.80000000000000004 0.10000000000000001 
1 0.80000000000000004 0 
0.90000000000000002 1 0.10000000000000001 
1 0.90000000000000002 0.20000000000000001 
1 1 0.20000000000000001 
1 0.90000000000000002 0.10000000000000001 
0.90000000000000002 1 0 
1 0.90000000000000002 0 
1 1 0.10000000000000001 
1 1 0
1 0 6 5 
0 4 6 5 
1 7 5 6 
2 1 7 8 
1 5 7 8 
3 2 10 9 
2 8 10 9 
2 10 8 7 
3 11 9 10 
4 14 6 5 
5 4 14 13 
4 12 14 13 
5 16 7 8 
7 16 5 6 
16 14 5 6 
8 5 16 15 
5 13 16 15 
5 16 13 14 
7 6 17 16 
6 14 17 16 
7 18 16 17 
8 19 10 9 
10 19 8 7 
19 16 8 7 
8 19 15 16 
10 7 18 19 
7 16 18 19 
9 8 19 20 
8 15 19 20 
11 21 9 10 
21 19 9 10 
9 21 20 19 
11 10 22 21 
10 19 22 21 
10 22 19 18 
11 23 21 22 
12 26 14 13 
13 12 26 25 
12 24 26 25 
13 28 16 15 
16 28 13 14 
28 26 13 14 
15 13 28 27 
13 25 28 27 
13 28 25 26 
14 29 17 16 
16 14 29 28 
14 26 29 28 
15 31 19 20 
19 31 15 16 
31 28 15 16 
20 15 31 30 
15 27 31 30 
15 31 27 28 
16 32 18 19 
18 32 16 17 
32 29 16 17 
19 16 32 31 
16 28 32 31 
16 32 28 29 
18 17 33 32 
17 29 33 32 
18 34 32 33 
19 35 22 21 
22 35 19 18 
35 32 19 18 
19 35 31 32 
22 18 34 35 
18 32 34 35 
21 36 20 19 
36 31 20 19 
20 36 30 31 
21 19 35 36 
19 31 35 36 
23 37 21 22 
37 35 21 22 
21 37 36 35 
23 22 38 37 
22 35 38 37 
22 38 35 34 
23 39 37 38 
24 42 26 25 
25 24 42 41 
24 40 42 41 
25 44 28 27 
28 44 25 26 
44 42 25 26 
27 25 44 43 
25 41 44 43 
25 44 41 42 
26 45 29 28 
28 26 45 44 
26 42 45 44 
27 47 31 30 
31 47 27 28 
47 44 27 28 
30 27 47 46 
27 43 47 46 
27 47 43 44 
28 48 32 31 
32 48 28 29 
48 45 28 29 
31 28 48 47 
28 44 48 47 
28 48 44 45 
29 49 33 32 
32 29 49 48 
29 45 49 48 
36 50 30 31 
50 47 30 31 
30 50 46 47 
31 51 35 36 
35 51 31 32 
51 48 31 32 
36 31 51 50 
31 47 51 50 
31 51 47 48 
32 52 34 35 
34 52 32 33 
52 49 32 33 
35 32 52 51 
32 48 52 51 
32 52 48 49 
34 33 53 52 
33 49 53 52 
34 54 52 53 
35 55 38 37 
38 55 35 34 
55 52 35 34 
35 55 51 52 
38 34 54 55 
34 52 54 55 
37 56 36 35 
56 51 36 35 
36 56 50 51 
37 35 55 56 
35 51 55 56 
39 57 37 38 
57 55 37 38 
37 57 56 55 
39 38 58 57 
38 55 58 57 
38 58 55 54 
39 59 57 58 
40 62 42 41 
41 40 62 61 
40 60 62 61 
41 64 44 43 
44 64 41 42 
64 62 41 42 
43 41 64 63 
41 61 64 63 
41 64 61 62 
42 65 45 44 
44 42 65 64 
42 62 65 64 
43 67 47 46 
47 67 43 44 
67 64 43 44 
46 43 67 66 
43 63 67 66 
43 67 63 64 
44 68 48 47 
48 68 44 45 
68 65 44 45 
47 44 68 67 
44 64 68 67 
44 68 64 65 
45 69 49 48 
48 45 69 68 
45 65 69 68 
50 70 46 47 
70 67 46 47 
46 70 66 67 
47 71 51 50 
51 71 47 48 
71 68 47 48 
50 47 71 70 
47 67 71 70 
47 71 67 68 
48 72 52 51 
52 72 48 49 
72 69 48 49 
51 48 72 71 
48 68 72 71 
48 72 68 69 
49 73 53 52 
52 49 73 72 
49 69 73 72 
56 74 50 51 
74 71 50 51 
50 74 70 71 
51 75 55 56 
55 75 51 52 
75 72 51 52 
56 51 75 74 
51 71 75 74 
51 75 71 72 
52 76 54 55 
54 76 52 53 
76 73 52 53 
55 52 76 75 
52 72 76 75 
52 76 72 73 
54 53 77 76 
53 73 77 76 
54 78 76 77 
55 79 58 57 
58 79 55 54 
79 76 55 54 
55 79 75 76 
58 54 78 79 
54 76 78 79 
57 80 56 55 
80 75 56 55 
56 80 74 75 
57 55 79 80 
55 75 79 80 
59 81 57 58 
81 79 57 58 
57 81 80 79 
59 58 82 81 
58 79 82 81 
58 82 79 78 
59 83 81 82 
60 86 62 61 
61 60 86 85 
60 84 86 85 
61 88 64 63 
64 88 61 62 
88 86 61 62 
63 61 88 87 
61 85 88 87 
61 88 85 86 
62 89 65 64 
64 62 89 88 
62 86 89 88 
63 91 67 66 
67 91 63 64 
91 88 63 64 
66 63 91 90 
63 87 91 90 
63 91 87 88 
64 92 68 67 
68 92 64 65 
92 89 64 65 
67 64 92 91 
64 88 92 91 
64 92 88 89 
65 93 69 68 
68 65 93 92 
65 89 93 92 
70 94 66 67 
94 91 66 67 
66 94 90 91 
67 95 71 70 
71 95 67 68 
95 92 67 68 
70 67 95 94 
67 91 95 94 
67 95 91 92 
68 96 72 71 
72 96 68 69 
96 93 68 69 
71 68 96 95 
68 92 96 95 
68 96 92 93 
69 97 73 72 
72 69 97 96 
69 93 97 96 
74 98 70 71 
98 95 70 71 
70 98 94 95 
71 99 75 74 
75 99 71 72 
99 96 71 72 
74 71 99 98 
71 95 99 98 
71 99 95 96 
72 100 76 75 
76 100 72 73 
100 97 72 73 
75 72 100 99 
72 96 100 99 
72 100 96 97 
73 101 77 76 
76 73 101 100 
73 97 101 100 
80 102 74 75 
102 99 74 75 
74 102 98 99 
75 103 79 80 
79 103 75 76 
103 100 75 76 
80 75 103 102 
75 99 103 102 
75 103 99 100 
76 104 78 79 
78 104 76 77 
104 101 76 77 
79 76 104 103 
76 100 104 103 
76 104 100 101 
78 77 105 104 
77 101 105 104 
78 106 104 105 
79 107 82 81 
82 107 79 78 
107 104 79 78 
79 107 103 104 
82 78 106 107 
78 104 106 107 
81 108 80 79 
108 103 80 79 
80 108 102 103 
81 79 107 108 
79 103 107 108 
83 109 81 82 
109 107 81 82 
81 109 108 107 
83 82 110 109 
82 107 110 109 
82 110 107 106 
83 111 109 110 
84 114 86 85 
85 84 114 113 
84 112 114 113 
85 116 88 87 
88 116 85 86 
116 114 85 86 
87 85 116 115 
85 113 116 115 
85 116 113 114 
86 117 89 88 
88 86 117 116 
86 114 117 116 
87 119 91 90 
91 119 87 88 
119 116 87 88 
90 87 119 118 
87 115 119 118 
87 119 115 116 
88 120 92 91 
92 120 88 89 
120 117 88 89 
91 88 120 119 
88 116 120 119 
88 120 116 117 
89 121 93 92 
92 89 121 120 
89 117 121 120 
94 122 90 91 
122 119 90 91 
90 122 118 119 
91 123 95 94 
95 123 91 92 
123 120 91 92 
94 91 123 122 
91 119 123 122 
91 123 119 120 
92 124 96 95 
96 124 92 93 
124 121 92 93 
95 92 124 123 
92 120 124 123 
92 124 120 121 
93 125 97 96 
96 93 125 124 
93 121 125 124 
98 126 94 95 
126 123 94 95 
94 126 122 123 
95 127 99 98 
99 127 95 96 
127 124 95 96 
98 95 127 126 
95 123 127 126 
95 127 123 124 
96 128 100 99 
100 128 96 97 
128 125 96 97 
99 96 128 127 
96 124 128 127 
96 128 124 125 
97 129 101 100 
100 97 129 128 
97 125 129 128 
102 130 98 99 
130 127 98 99 
98 130 126 127 
99 131 103 102 
103 131 99 100 
131 128 99 100 
102 99 131 130 
99 127 131 130 
99 131 127 128 
100 132 104 103 
104 132 100 101 
132 129 100 101 
103 100 132 131 
100 128 132 131 
100 132 128 129 
101 133 105 104 
104 101 133 132 
101 129 133 132 
108 134 102 103 
134 131 102 103 
102 134 130 131 
103 135 107 108 
107 135 103 104 
135 132 103 104 
108 103 135 134 
103 131 135 134 
103 135 131 132 
104 136 106 107 
106 136 104 105 
136 133 104 105 
107 104 136 135 
104 132 136 135 
104 136 132 133 
106 105 137 136 
105 133 137 136 
106 138 136 137 
107 139 110 109 
110 139 107 106 
139 136 107 106 
107 139 135 136 
110 106 138 139 
106 136 138 139 
109 140 108 107 
140 135 108 107 
108 140 134 135 
109 107 139 140 
107 135 139 140 
111 141 109 110 
141 139 109 110 
109 141 140 139 
111 110 142 141 
110 139 142 141 
110 142 139 138 
111 143 141 142 
112 147 114 113 
113 112 147 148 
112 144 147 148 
113 150 116 115 
116 150 113 114 
150 147 113 114 
115 113 150 149 
113 148 150 149 
113 150 148 147 
114 151 117 116 
116 114 151 150 
114 147 151 150 
115 153 119 118 
119 153 115 116 
153 150 115 116 
118 115 153 152 
115 149 153 152 
115 153 149 150 
116 154 120 119 
120 154 116 117 
154 151 116 117 
119 116 154 153 
116 150 154 153 
116 154 150 151 
117 155 121 120 
120 117 155 154 
117 151 155 154 
122 156 118 119 
156 153 118 119 
118 156 152 153 
119 157 123 122 
123 157 119 120 
157 154 119 120 
122 119 157 156 
119 153 157 156 
119 157 153 154 
120 158 124 123 
124 158 120 121 
158 155 120 121 
123 120 158 157 
120 154 158 157 
120 158 154 155 
121 159 125 124 
124 121 159 158 
121 155 159 158 
126 160 122 123 
160 157 122 123 
122 160 156 157 
123 161 127 126 
127 161 123 124 
161 158 123 124 
126 123 161 160 
123 157 161 160 
123 161 157 158 
124 162 128 127 
128 162 124 125 
162 159 124 125 
127 124 162 161 