Variables=x,y,z
Zone n=602, e=1200, f=fepoint, et=triangle
1 0 1 
0.90000000000000002 0 1 
0.80000000000000004 0 1 
0.69999999999999996 0 1 
0.59999999999999998 0 1 
0.5 0 1 
0.40000000000000002 0 1 
0.29999999999999999 0 1 
0.20000000000000001 0 1 
0.099999999999999978 0 1 
0 0 1 
1 0 0.90000000000000002 
1 0 0.80000000000000004 
1 0 0.69999999999999996 
1 0 0.59999999999999998 
1 0 0.5 
1 0 0.40000000000000002 
1 0 0.29999999999999999 
1 0 0.20000000000000001 
1 0 0.099999999999999978 
1 0 0 
1 0.099999999999999978 1 
0.90000000000000002 0 0.90000000000000002 
0.90000000000000002 0.099999999999999978 1 
0.80000000000000004 0 0.90000000000000002 
0.80000000000000004 0.099999999999999978 1 
0.69999999999999996 0 0.90000000000000002 
0.69999999999999996 0.099999999999999978 1 
0.59999999999999998 0 0.90000000000000002 
0.5 0 0.90000000000000002 
0.59999999999999998 0.099999999999999978 1 
0.40000000000000002 0 0.90000000000000002 
0.5 0.099999999999999978 1 
0.40000000000000002 0.099999999999999978 1 
0.29999999999999999 0 0.90000000000000002 
0.29999999999999999 0.099999999999999978 1 
0.20000000000000001 0 0.90000000000000002 
0.20000000000000001 0.099999999999999978 1 
0.099999999999999978 0 0.90000000000000002 
0 0 0.90000000000000002 
0.099999999999999978 0.099999999999999978 1 
0 0.099999999999999978 1 
0.90000000000000002 0 0.80000000000000004 
1 0.099999999999999978 0.90000000000000002 
0.90000000000000002 0 0.69999999999999996 
1 0.099999999999999978 0.80000000000000004 
0.90000000000000002 0 0.59999999999999998 
1 0.099999999999999978 0.69999999999999996 
0.90000000000000002 0 0.5 
1 0.099999999999999978 0.59999999999999998 
0.90000000000000002 0 0.40000000000000002 
1 0.099999999999999978 0.5 
0.90000000000000002 0 0.29999999999999999 
1 0.099999999999999978 0.40000000000000002 
0.90000000000000002 0 0.20000000000000001 
1 0.099999999999999978 0.29999999999999999 
0.90000000000000002 0 0.099999999999999978 
1 0.099999999999999978 0.20000000000000001 
0.90000000000000002 0 0 
1 0.099999999999999978 0.099999999999999978 
1 0.099999999999999978 0 
1 0.20000000000000001 1 
0.80000000000000004 0 0.80000000000000004 
0.90000000000000002 0.20000000000000001 1 
0.69999999999999996 0 0.80000000000000004 
0.80000000000000004 0.20000000000000001 1 
0.59999999999999998 0 0.80000000000000004 
0.69999999999999996 0.20000000000000001 1 
0.5 0 0.80000000000000004 
0.40000000000000002 0 0.80000000000000004 
0.59999999999999998 0.20000000000000001 1 
0.29999999999999999 0 0.80000000000000004 
0.5 0.20000000000000001 1 
0.40000000000000002 0.20000000000000001 1 
0.20000000000000001 0 0.80000000000000004 
0.29999999999999999 0.20000000000000001 1 
0.099999999999999978 0 0.80000000000000004 
0.20000000000000001 0.20000000000000001 1 
0 0 0.80000000000000004 
0 0.099999999999999978 0.90000000000000002 
0.099999999999999978 0.20000000000000001 1 
0 0.20000000000000001 1 
0.80000000000000004 0 0.69999999999999996 
1 0.20000000000000001 0.90000000000000002 
0.80000000000000004 0 0.59999999999999998 
1 0.20000000000000001 0.80000000000000004 
0.80000000000000004 0 0.5 
1 0.20000000000000001 0.69999999999999996 
0.80000000000000004 0 0.40000000000000002 
1 0.20000000000000001 0.59999999999999998 
0.80000000000000004 0 0.29999999999999999 
1 0.20000000000000001 0.5 
0.80000000000000004 0 0.20000000000000001 
1 0.20000000000000001 0.40000000000000002 
0.80000000000000004 0 0.099999999999999978 
1 0.20000000000000001 0.29999999999999999 
0.80000000000000004 0 0 
1 0.20000000000000001 0.20000000000000001 
0.90000000000000002 0.099999999999999978 0 
1 0.20000000000000001 0.099999999999999978 
1 0.20000000000000001 0 
1 0.29999999999999999 1 
0.69999999999999996 0 0.69999999999999996 
0.90000000000000002 0.29999999999999999 1 
0.59999999999999998 0 0.69999999999999996 
0.80000000000000004 0.29999999999999999 1 
0.5 0 0.69999999999999996 
0.69999999999999996 0.29999999999999999 1 
0.40000000000000002 0 0.69999999999999996 
0.29999999999999999 0 0.69999999999999996 
0.59999999999999998 0.29999999999999999 1 
0.20000000000000001 0 0.69999999999999996 
0.5 0.29999999999999999 1 
0.40000000000000002 0.29999999999999999 1 
0.099999999999999978 0 0.69999999999999996 
0.29999999999999999 0.29999999999999999 1 
0 0 0.69999999999999996 
0.20000000000000001 0.29999999999999999 1 
0 0.099999999999999978 0.80000000000000004 
0 0.20000000000000001 0.90000000000000002 
0.099999999999999978 0.29999999999999999 1 
0 0.29999999999999999 1 
0.69999999999999996 0 0.59999999999999998 
1 0.29999999999999999 0.90000000000000002 
0.69999999999999996 0 0.5 
1 0.29999999999999999 0.80000000000000004 
0.69999999999999996 0 0.40000000000000002 
1 0.29999999999999999 0.69999999999999996 
0.69999999999999996 0 0.29999999999999999 
1 0.29999999999999999 0.59999999999999998 
0.69999999999999996 0 0.20000000000000001 
1 0.29999999999999999 0.5 
0.69999999999999996 0 0.099999999999999978 
1 0.29999999999999999 0.40000000000000002 
0.69999999999999996 0 0 
1 0.29999999999999999 0.29999999999999999 
0.80000000000000004 0.099999999999999978 0 
1 0.29999999999999999 0.20000000000000001 
0.90000000000000002 0.20000000000000001 0 
1 0.29999999999999999 0.099999999999999978 
1 0.29999999999999999 0 
1 0.40000000000000002 1 
0.59999999999999998 0 0.59999999999999998 
0.90000000000000002 0.40000000000000002 1 
0.5 0 0.59999999999999998 
0.80000000000000004 0.40000000000000002 1 
0.40000000000000002 0 0.59999999999999998 
0.69999999999999996 0.40000000000000002 1 
0.29999999999999999 0 0.59999999999999998 
0.20000000000000001 0 0.59999999999999998 
0.59999999999999998 0.40000000000000002 1 
0.099999999999999978 0 0.59999999999999998 
0.5 0.40000000000000002 1 
0.40000000000000002 0.40000000000000002 1 
0 0 0.59999999999999998 
0.29999999999999999 0.40000000000000002 1 
0 0.099999999999999978 0.69999999999999996 
0.20000000000000001 0.40000000000000002 1 
0 0.20000000000000001 0.80000000000000004 
0 0.29999999999999999 0.90000000000000002 
0.099999999999999978 0.40000000000000002 1 
0 0.40000000000000002 1 
0.59999999999999998 0 0.5 
1 0.40000000000000002 0.90000000000000002 
0.59999999999999998 0 0.40000000000000002 
1 0.40000000000000002 0.80000000000000004 
0.59999999999999998 0 0.29999999999999999 
1 0.40000000000000002 0.69999999999999996 
0.59999999999999998 0 0.20000000000000001 
1 0.40000000000000002 0.59999999999999998 
0.59999999999999998 0 0.099999999999999978 
1 0.40000000000000002 0.5 
0.59999999999999998 0 0 
1 0.40000000000000002 0.40000000000000002 
0.69999999999999996 0.099999999999999978 0 
1 0.40000000000000002 0.29999999999999999 
0.80000000000000004 0.20000000000000001 0 
1 0.40000000000000002 0.20000000000000001 
0.90000000000000002 0.29999999999999999 0 
1 0.40000000000000002 0.099999999999999978 
1 0.40000000000000002 0 
1 0.5 1 
0.5 0 0.5 
0.90000000000000002 0.5 1 
0.40000000000000002 0 0.5 
0.80000000000000004 0.5 1 
0.29999999999999999 0 0.5 
0.69999999999999996 0.5 1 
0.20000000000000001 0 0.5 
0.099999999999999978 0 0.5 
0.59999999999999998 0.5 1 
0 0 0.5 
0.5 0.5 1 
0.40000000000000002 0.5 1 
0 0.099999999999999978 0.59999999999999998 
0.29999999999999999 0.5 1 
0 0.20000000000000001 0.69999999999999996 
0.20000000000000001 0.5 1 
0 0.29999999999999999 0.80000000000000004 
0 0.40000000000000002 0.90000000000000002 
0.099999999999999978 0.5 1 
0 0.5 1 
0.5 0 0.40000000000000002 
1 0.5 0.90000000000000002 
0.5 0 0.29999999999999999 
1 0.5 0.80000000000000004 
0.5 0 0.20000000000000001 
1 0.5 0.69999999999999996 
0.5 0 0.099999999999999978 
1 0.5 0.59999999999999998 
0.5 0 0 
1 0.5 0.5 
0.59999999999999998 0.099999999999999978 0 
1 0.5 0.40000000000000002 
0.69999999999999996 0.20000000000000001 0 
1 0.5 0.29999999999999999 
0.80000000000000004 0.29999999999999999 0 
1 0.5 0.20000000000000001 
0.90000000000000002 0.40000000000000002 0 
1 0.5 0.099999999999999978 
1 0.5 0 
1 0.59999999999999998 1 
0.40000000000000002 0 0.40000000000000002 
0.90000000000000002 0.59999999999999998 1 
0.29999999999999999 0 0.40000000000000002 
0.80000000000000004 0.59999999999999998 1 
0.20000000000000001 0 0.40000000000000002 
0.69999999999999996 0.59999999999999998 1 
0.099999999999999978 0 0.40000000000000002 
0 0 0.40000000000000002 
0.59999999999999998 0.59999999999999998 1 
0 0.099999999999999978 0.5 
0.5 0.59999999999999998 1 
0.40000000000000002 0.59999999999999998 1 
0 0.20000000000000001 0.59999999999999998 
0.29999999999999999 0.59999999999999998 1 
0 0.29999999999999999 0.69999999999999996 
0.20000000000000001 0.59999999999999998 1 
0 0.40000000000000002 0.80000000000000004 
0 0.5 0.90000000000000002 
0.099999999999999978 0.59999999999999998 1 
0 0.59999999999999998 1 
0.40000000000000002 0 0.29999999999999999 
1 0.59999999999999998 0.90000000000000002 
0.40000000000000002 0 0.20000000000000001 
1 0.59999999999999998 0.80000000000000004 
0.40000000000000002 0 0.099999999999999978 
1 0.59999999999999998 0.69999999999999996 
0.40000000000000002 0 0 
1 0.59999999999999998 0.59999999999999998 
0.5 0.099999999999999978 0 
1 0.59999999999999998 0.5 
0.59999999999999998 0.20000000000000001 0 
1 0.59999999999999998 0.40000000000000002 
0.69999999999999996 0.29999999999999999 0 
1 0.59999999999999998 0.29999999999999999 
0.80000000000000004 0.40000000000000002 0 
1 0.59999999999999998 0.20000000000000001 
0.90000000000000002 0.5 0 
1 0.59999999999999998 0.099999999999999978 
1 0.59999999999999998 0 
1 0.69999999999999996 1 
0.29999999999999999 0 0.29999999999999999 
0.90000000000000002 0.69999999999999996 1 
0.20000000000000001 0 0.29999999999999999 
0.80000000000000004 0.69999999999999996 1 
0.099999999999999978 0 0.29999999999999999 
0.69999999999999996 0.69999999999999996 1 
0 0 0.29999999999999999 
0 0.099999999999999978 0.40000000000000002 
0.59999999999999998 0.69999999999999996 1 
0 0.20000000000000001 0.5 
0.5 0.69999999999999996 1 
0.40000000000000002 0.69999999999999996 1 
0 0.29999999999999999 0.59999999999999998 
0.29999999999999999 0.69999999999999996 1 
0 0.40000000000000002 0.69999999999999996 
0.20000000000000001 0.69999999999999996 1 
0 0.5 0.80000000000000004 
0 0.59999999999999998 0.90000000000000002 
0.099999999999999978 0.69999999999999996 1 
0 0.69999999999999996 1 
0.29999999999999999 0 0.20000000000000001 
1 0.69999999999999996 0.90000000000000002 
0.29999999999999999 0 0.099999999999999978 
1 0.69999999999999996 0.80000000000000004 
0.29999999999999999 0 0 
1 0.69999999999999996 0.69999999999999996 
0.40000000000000002 0.099999999999999978 0 
1 0.69999999999999996 0.59999999999999998 
0.5 0.20000000000000001 0 
1 0.69999999999999996 0.5 
0.59999999999999998 0.29999999999999999 0 
1 0.69999999999999996 0.40000000000000002 
0.69999999999999996 0.40000000000000002 0 
1 0.69999999999999996 0.29999999999999999 
0.80000000000000004 0.5 0 
1 0.69999999999999996 0.20000000000000001 
0.90000000000000002 0.59999999999999998 0 
1 0.69999999999999996 0.099999999999999978 
1 0.69999999999999996 0 
1 0.80000000000000004 1 
0.20000000000000001 0 0.20000000000000001 
0.90000000000000002 0.80000000000000004 1 
0.099999999999999978 0 0.20000000000000001 
0.80000000000000004 0.80000000000000004 1 
0 0 0.20000000000000001 
0.69999999999999996 0.80000000000000004 1 
0 0.099999999999999978 0.29999999999999999 
0 0.20000000000000001 0.40000000000000002 
0.59999999999999998 0.80000000000000004 1 
0 0.29999999999999999 0.5 
0.5 0.80000000000000004 1 
0.40000000000000002 0.80000000000000004 1 
0 0.40000000000000002 0.59999999999999998 
0.29999999999999999 0.80000000000000004 1 
0 0.5 0.69999999999999996 
0.20000000000000001 0.80000000000000004 1 
0 0.59999999999999998 0.80000000000000004 
0 0.69999999999999996 0.90000000000000002 
0.099999999999999978 0.80000000000000004 1 
0 0.80000000000000004 1 
0.20000000000000001 0 0.099999999999999978 
1 0.80000000000000004 0.90000000000000002 
0.20000000000000001 0 0 
1 0.80000000000000004 0.80000000000000004 
0.29999999999999999 0.099999999999999978 0 
1 0.80000000000000004 0.69999999999999996 
0.40000000000000002 0.20000000000000001 0 
1 0.80000000000000004 0.59999999999999998 
0.5 0.29999999999999999 0 
1 0.80000000000000004 0.5 
0.59999999999999998 0.40000000000000002 0 
1 0.80000000000000004 0.40000000000000002 
0.69999999999999996 0.5 0 
1 0.80000000000000004 0.29999999999999999 
0.80000000000000004 0.59999999999999998 0 
1 0.80000000000000004 0.20000000000000001 
0.90000000000000002 0.69999999999999996 0 
1 0.80000000000000004 0.099999999999999978 
1 0.80000000000000004 0 
1 0.90000000000000002 1 
0.099999999999999978 0 0.099999999999999978 
0.90000000000000002 0.90000000000000002 1 
0 0 0.099999999999999978 
0.80000000000000004 0.90000000000000002 1 
0 0.099999999999999978 0.20000000000000001 
0.69999999999999996 0.90000000000000002 1 
0 0.20000000000000001 0.29999999999999999 
0 0.29999999999999999 0.40000000000000002 
0.59999999999999998 0.90000000000000002 1 
0 0.40000000000000002 0.5 
0.5 0.90000000000000002 1 
0.40000000000000002 0.90000000000000002 1 
0 0.5 0.59999999999999998 
0.29999999999999999 0.90000000000000002 1 
0 0.59999999999999998 0.69999999999999996 
0.20000000000000001 0.90000000000000002 1 
0 0.69999999999999996 0.80000000000000004 
0 0.80000000000000004 0.90000000000000002 
0.099999999999999978 0.90000000000000002 1 
0 0.90000000000000002 1 
0.099999999999999978 0 0 
1 0.90000000000000002 0.90000000000000002 
0.20000000000000001 0.099999999999999978 0 
1 0.90000000000000002 0.80000000000000004 
0.29999999999999999 0.20000000000000001 0 
1 0.90000000000000002 0.69999999999999996 
0.40000000000000002 0.29999999999999999 0 
1 0.90000000000000002 0.59999999999999998 
0.5 0.40000000000000002 0 
1 0.90000000000000002 0.5 
0.59999999999999998 0.5 0 
1 0.90000000000000002 0.40000000000000002 
0.69999999999999996 0.59999999999999998 0 
1 0.90000000000000002 0.29999999999999999 
0.80000000000000004 0.69999999999999996 0 
1 0.90000000000000002 0.20000000000000001 
0.90000000000000002 0.80000000000000004 0 
1 0.90000000000000002 0.099999999999999978 
1 0.90000000000000002 0 
1 1 1 
0 0 0 
0.90000000000000002 1 1 
0 0.099999999999999978 0.099999999999999978 
0.80000000000000004 1 1 
0 0.20000000000000001 0.20000000000000001 
0.69999999999999996 1 1 
0 0.29999999999999999 0.29999999999999999 
0 0.40000000000000002 0.40000000000000002 
0.59999999999999998 1 1 
0 0.5 0.5 
0.5 1 1 
0.40000000000000002 1 1 
0 0.59999999999999998 0.59999999999999998 
0.29999999999999999 1 1 
0 0.69999999999999996 0.69999999999999996 
0.20000000000000001 1 1 
0 0.80000000000000004 0.80000000000000004 
0 0.90000000000000002 0.90000000000000002 
0.099999999999999978 1 1 
0 1 1 
0.099999999999999978 0.099999999999999978 0 
1 1 0.90000000000000002 
0.20000000000000001 0.20000000000000001 0 
1 1 0.80000000000000004 
0.29999999999999999 0.29999999999999999 0 
1 1 0.69999999999999996 
0.40000000000000002 0.40000000000000002 0 
1 1 0.59999999999999998 
0.5 0.5 0 
1 1 0.5 
0.59999999999999998 0.59999999999999998 0 
1 1 0.40000000000000002 
0.69999999999999996 0.69999999999999996 0 
1 1 0.29999999999999999 
0.80000000000000004 0.80000000000000004 0 
1 1 0.20000000000000001 
0.90000000000000002 0.90000000000000002 0 
1 1 0.099999999999999978 
1 1 0 
0.90000000000000002 1 0.90000000000000002 
0 0.099999999999999978 0 
0.80000000000000004 1 0.90000000000000002 
0 0.20000000000000001 0.099999999999999978 
0.69999999999999996 1 0.90000000000000002 
0 0.29999999999999999 0.20000000000000001 
0.59999999999999998 1 0.90000000000000002 
0 0.40000000000000002 0.29999999999999999 
0 0.5 0.40000000000000002 
0.5 1 0.90000000000000002 
0 0.59999999999999998 0.5 
0.40000000000000002 1 0.90000000000000002 
0.29999999999999999 1 0.90000000000000002 
0 0.69999999999999996 0.59999999999999998 
0.20000000000000001 1 0.90000000000000002 
0 0.80000000000000004 0.69999999999999996 
0.099999999999999978 1 0.90000000000000002 
0 0.90000000000000002 0.80000000000000004 
0 1 0.90000000000000002 
0.099999999999999978 0.20000000000000001 0 
0.90000000000000002 1 0.80000000000000004 
0.20000000000000001 0.29999999999999999 0 
0.90000000000000002 1 0.69999999999999996 
0.29999999999999999 0.40000000000000002 0 
0.90000000000000002 1 0.59999999999999998 
0.40000000000000002 0.5 0 
0.90000000000000002 1 0.5 
0.5 0.59999999999999998 0 
0.90000000000000002 1 0.40000000000000002 
0.59999999999999998 0.69999999999999996 0 
0.90000000000000002 1 0.29999999999999999 
0.69999999999999996 0.80000000000000004 0 
0.90000000000000002 1 0.20000000000000001 
0.80000000000000004 0.90000000000000002 0 
0.90000000000000002 1 0.099999999999999978 
0.90000000000000002 1 0 
0.80000000000000004 1 0.80000000000000004 
0 0.20000000000000001 0 
0.69999999999999996 1 0.80000000000000004 
0 0.29999999999999999 0.099999999999999978 
0.59999999999999998 1 0.80000000000000004 
0 0.40000000000000002 0.20000000000000001 
0.5 1 0.80000000000000004 
0 0.5 0.29999999999999999 
0 0.59999999999999998 0.40000000000000002 
0.40000000000000002 1 0.80000000000000004 
0 0.69999999999999996 0.5 
0.29999999999999999 1 0.80000000000000004 
0.20000000000000001 1 0.80000000000000004 
0 0.80000000000000004 0.59999999999999998 
0.099999999999999978 1 0.80000000000000004 
0 0.90000000000000002 0.69999999999999996 
0 1 0.80000000000000004 
0.099999999999999978 0.29999999999999999 0 
0.80000000000000004 1 0.69999999999999996 
0.20000000000000001 0.40000000000000002 0 
0.80000000000000004 1 0.59999999999999998 
0.29999999999999999 0.5 0 
0.80000000000000004 1 0.5 
0.40000000000000002 0.59999999999999998 0 
0.80000000000000004 1 0.40000000000000002 
0.5 0.69999999999999996 0 
0.80000000000000004 1 0.29999999999999999 
0.59999999999999998 0.80000000000000004 0 
0.80000000000000004 1 0.20000000000000001 
0.69999999999999996 0.90000000000000002 0 
0.80000000000000004 1 0.099999999999999978 
0.80000000000000004 1 0 
0.69999999999999996 1 0.69999999999999996 
0 0.29999999999999999 0 
0.59999999999999998 1 0.69999999999999996 
0 0.40000000000000002 0.099999999999999978 
0.5 1 0.69999999999999996 
0 0.5 0.20000000000000001 
0.40000000000000002 1 0.69999999999999996 
0 0.59999999999999998 0.29999999999999999 
0 0.69999999999999996 0.40000000000000002 
0.29999999999999999 1 0.69999999999999996 
0 0.80000000000000004 0.5 
0.20000000000000001 1 0.69999999999999996 
0.099999999999999978 1 0.69999999999999996 
0 0.90000000000000002 0.59999999999999998 
0 1 0.69999999999999996 
0.099999999999999978 0.40000000000000002 0 
0.69999999999999996 1 0.59999999999999998 
0.20000000000000001 0.5 0 
0.69999999999999996 1 0.5 
0.29999999999999999 0.59999999999999998 0 
0.69999999999999996 1 0.40000000000000002 
0.40000000000000002 0.69999999999999996 0 
0.69999999999999996 1 0.29999999999999999 
0.5 0.80000000000000004 0 
0.69999999999999996 1 0.20000000000000001 
0.59999999999999998 0.90000000000000002 0 
0.69999999999999996 1 0.099999999999999978 
0.69999999999999996 1 0 
0.59999999999999998 1 0.59999999999999998 
0 0.40000000000000002 0 
0.5 1 0.59999999999999998 
0 0.5 0.099999999999999978 
0.40000000000000002 1 0.59999999999999998 
0 0.59999999999999998 0.20000000000000001 
0.29999999999999999 1 0.59999999999999998 
0 0.69999999999999996 0.29999999999999999 
0 0.80000000000000004 0.40000000000000002 
0.20000000000000001 1 0.59999999999999998 
0 0.90000000000000002 0.5 
0.099999999999999978 1 0.59999999999999998 
0 1 0.59999999999999998 
0.099999999999999978 0.5 0 
0.59999999999999998 1 0.5 
0.20000000000000001 0.59999999999999998 0 
0.59999999999999998 1 0.40000000000000002 
0.29999999999999999 0.69999999999999996 0 
0.59999999999999998 1 0.29999999999999999 
0.40000000000000002 0.80000000000000004 0 
0.59999999999999998 1 0.20000000000000001 
0.5 0.90000000000000002 0 
0.59999999999999998 1 0.099999999999999978 
0.59999999999999998 1 0 
0.5 1 0.5 
0 0.5 0 
0.40000000000000002 1 0.5 
0 0.59999999999999998 0.099999999999999978 
0.29999999999999999 1 0.5 
0 0.69999999999999996 0.20000000000000001 
0.20000000000000001 1 0.5 
0 0.80000000000000004 0.29999999999999999 
0 0.90000000000000002 0.40000000000000002 
0.099999999999999978 1 0.5 
0 1 0.5 
0.099999999999999978 0.59999999999999998 0 
0.5 1 0.40000000000000002 
0.20000000000000001 0.69999999999999996 0 
0.5 1 0.29999999999999999 
0.29999999999999999 0.80000000000000004 0 
0.5 1 0.20000000000000001 
0.40000000000000002 0.90000000000000002 0 
0.5 1 0.099999999999999978 
0.5 1 0 
0.40000000000000002 1 0.40000000000000002 
0 0.59999999999999998 0 
0.29999999999999999 1 0.40000000000000002 
0 0.69999999999999996 0.099999999999999978 
0.20000000000000001 1 0.40000000000000002 
0 0.80000000000000004 0.20000000000000001 
0.099999999999999978 1 0.40000000000000002 
0 0.90000000000000002 0.29999999999999999 
0 1 0.40000000000000002 
0.099999999999999978 0.69999999999999996 0 
0.40000000000000002 1 0.29999999999999999 
0.20000000000000001 0.80000000000000004 0 
0.40000000000000002 1 0.20000000000000001 
0.29999999999999999 0.90000000000000002 0 
0.40000000000000002 1 0.099999999999999978 
0.40000000000000002 1 0 
0.29999999999999999 1 0.29999999999999999 
0 0.69999999999999996 0 
0.20000000000000001 1 0.29999999999999999 
0 0.80000000000000004 0.099999999999999978 
0.099999999999999978 1 0.29999999999999999 
0 0.90000000000000002 0.20000000000000001 
0 1 0.29999999999999999 
0.099999999999999978 0.80000000000000004 0 
0.29999999999999999 1 0.20000000000000001 
0.20000000000000001 0.90000000000000002 0 
0.29999999999999999 1 0.099999999999999978 
0.29999999999999999 1 0 
0.20000000000000001 1 0.20000000000000001 
0 0.80000000000000004 0 
0.099999999999999978 1 0.20000000000000001 
0 0.90000000000000002 0.099999999999999978 
0 1 0.20000000000000001 
0.099999999999999978 0.90000000000000002 0 
0.20000000000000001 1 0.099999999999999978 
0.20000000000000001 1 0 
0.099999999999999978 1 0.099999999999999978 
0 0.90000000000000002 0 
0 1 0.099999999999999978 
0.099999999999999978 1 0 
0 1 0
0 11 21 
0 21 1 
11 0 22 
1 22 0 
1 23 2 
23 1 21 
22 1 24 
2 24 1 
2 25 3 
25 2 23 
24 2 26 
3 26 2 
3 27 4 
27 3 25 
26 3 28 
4 28 3 
28 4 29 
5 29 4 
4 30 5 
30 4 27 
29 5 31 
6 31 5 
5 32 6 
32 5 30 
6 33 7 
33 6 32 
31 6 34 
7 34 6 
7 35 8 
35 7 33 
34 7 36 
8 36 7 
8 37 9 
37 8 35 
36 8 38 
9 38 8 
38 9 39 
10 39 9 
9 40 10 
40 9 37 
10 41 39 
41 10 40 
12 11 42 
22 42 11 
11 12 43 
43 21 11 
13 12 44 
42 44 12 
12 13 45 
45 43 12 
14 13 46 
44 46 13 
13 14 47 
47 45 13 
15 14 48 
46 48 14 
14 15 49 
49 47 14 
16 15 50 
48 50 15 
15 16 51 
51 49 15 
17 16 52 
50 52 16 
16 17 53 
53 51 16 
18 17 54 
52 54 17 
17 18 55 
55 53 17 
19 18 56 
54 56 18 
18 19 57 
57 55 18 
20 19 58 
56 58 19 
19 20 59 
59 57 19 
20 58 60 
60 59 20 
21 43 61 
21 61 23 
42 22 62 
24 62 22 
23 63 25 
63 23 61 
62 24 64 
26 64 24 
25 65 27 
65 25 63 
64 26 66 
28 66 26 
27 67 30 
67 27 65 
66 28 68 
29 68 28 
68 29 69 
31 69 29 
30 70 32 
70 30 67 
69 31 71 
34 71 31 
32 72 33 
72 32 70 
33 73 35 
73 33 72 
71 34 74 
36 74 34 
35 75 37 
75 35 73 
74 36 76 
38 76 36 
37 77 40 
77 37 75 
76 38 78 
39 78 38 
39 79 78 
79 39 41 
40 80 41 
80 40 77 
41 81 79 
81 41 80 
44 42 82 
62 82 42 
43 45 83 
83 61 43 
46 44 84 
82 84 44 
45 47 85 
85 83 45 
48 46 86 
84 86 46 
47 49 87 
87 85 47 
50 48 88 
86 88 48 
49 51 89 
89 87 49 
52 50 90 
88 90 50 
51 53 91 
91 89 51 
54 52 92 
90 92 52 
53 55 93 
93 91 53 
56 54 94 
92 94 54 
55 57 95 
95 93 55 
58 56 96 
94 96 56 
57 59 97 
97 95 57 
58 96 98 
98 60 58 
59 60 99 
99 97 59 
60 98 100 
100 99 60 
61 83 101 
61 101 63 
82 62 102 
64 102 62 
63 103 65 
103 63 101 
102 64 104 
66 104 64 
65 105 67 
105 65 103 
104 66 106 
68 106 66 
67 107 70 
107 67 105 
106 68 108 
69 108 68 
108 69 109 
71 109 69 
70 110 72 
110 70 107 
109 71 111 
74 111 71 
72 112 73 
112 72 110 
73 113 75 
113 73 112 
111 74 114 
76 114 74 
75 115 77 
115 75 113 
114 76 116 
78 116 76 
77 117 80 
117 77 115 
78 118 116 
118 78 79 
79 119 118 
119 79 81 
80 120 81 
120 80 117 
81 121 119 
121 81 120 
84 82 122 
102 122 82 
83 85 123 
123 101 83 
86 84 124 
122 124 84 
85 87 125 
125 123 85 
88 86 126 
124 126 86 
87 89 127 
127 125 87 
90 88 128 
126 128 88 
89 91 129 
129 127 89 
92 90 130 
128 130 90 
91 93 131 
131 129 91 
94 92 132 
130 132 92 
93 95 133 
133 131 93 
96 94 134 
132 134 94 
95 97 135 
135 133 95 
96 134 136 
136 98 96 
97 99 137 
137 135 97 
98 136 138 
138 100 98 
99 100 139 
139 137 99 
100 138 140 
140 139 100 
101 123 141 
101 141 103 
122 102 142 
104 142 102 
103 143 105 
143 103 141 
142 104 144 
106 144 104 
105 145 107 
145 105 143 
144 106 146 
108 146 106 
107 147 110 
147 107 145 
146 108 148 
109 148 108 
148 109 149 
111 149 109 
110 150 112 
150 110 147 
149 111 151 
114 151 111 
112 152 113 
152 112 150 
113 153 115 
153 113 152 
151 114 154 
116 154 114 
115 155 117 
155 115 153 
116 156 154 
156 116 118 
117 157 120 
157 117 155 
118 158 156 
158 118 119 
119 159 158 
159 119 121 
120 160 121 
160 120 157 
121 161 159 
161 121 160 
124 122 162 
142 162 122 
123 125 163 
163 141 123 
126 124 164 
162 164 124 
125 127 165 
165 163 125 
128 126 166 
164 166 126 
127 129 167 
167 165 127 
130 128 168 
166 168 128 
129 131 169 
169 167 129 
132 130 170 
168 170 130 
131 133 171 
171 169 131 
134 132 172 
170 172 132 
133 135 173 
173 171 133 
134 172 174 
174 136 134 
135 137 175 
175 173 135 
136 174 176 
176 138 136 
137 139 177 
177 175 137 
138 176 178 
178 140 138 
139 140 179 
179 177 139 
140 178 180 
180 179 140 
141 163 181 
141 181 143 
162 142 182 
144 182 142 
143 183 145 
183 143 181 
182 144 184 
146 184 144 
145 185 147 
185 145 183 
184 146 186 
148 186 146 
147 187 150 
187 147 185 
186 148 188 
149 188 148 
188 149 189 
151 189 149 
150 190 152 
190 150 187 
189 151 191 
154 191 151 
152 192 153 
192 152 190 
153 193 155 
193 153 192 
154 194 191 
194 154 156 
155 195 157 
195 155 193 
156 196 194 
196 156 158 
157 197 160 
197 157 195 
158 198 196 
198 158 159 
159 199 198 
199 159 161 
160 200 161 
200 160 197 
161 201 199 
201 161 200 
164 162 202 
182 202 162 
163 165 203 
203 181 163 
166 164 204 
202 204 164 
165 167 205 
205 203 165 
168 166 206 
204 206 166 
167 169 207 
207 205 167 
170 168 208 
206 208 168 
169 171 209 
209 207 169 
172 170 210 
208 210 170 
171 173 211 
211 209 171 
172 210 212 
212 174 172 
173 175 213 
213 211 173 
174 212 214 
214 176 174 
175 177 215 
215 213 175 
176 214 216 
216 178 176 
177 179 217 
217 215 177 
178 216 218 
218 180 178 
179 180 219 
219 217 179 
180 218 220 
220 219 180 
181 203 221 
181 221 183 
202 182 222 
184 222 182 
183 223 185 
223 183 221 
222 184 224 
186 224 184 
185 225 187 
225 185 223 
224 186 226 
188 226 186 
187 227 190 
227 187 225 
226 188 228 
189 228 188 
228 189 229 
191 229 189 
190 230 192 
230 190 227 
191 231 229 
231 191 194 
192 232 193 
232 192 230 
193 233 195 
233 193 232 
194 234 231 
234 194 196 
195 235 197 
235 195 233 
196 236 234 
236 196 198 
197 237 200 
237 197 235 
198 238 236 
238 198 199 
199 239 238 
239 199 201 
200 240 201 
240 200 237 
201 241 239 
241 201 240 
204 202 242 
222 242 202 
203 205 243 
243 221 203 
206 204 244 
242 244 204 
205 207 245 
245 243 205 
208 206 246 
244 246 206 
207 209 247 
247 245 207 
210 208 248 
246 248 208 
209 211 249 
249 247 209 
210 248 250 
250 212 210 
211 213 251 
251 249 211 
212 250 252 
252 214 212 
213 215 253 
253 251 213 
214 252 254 
254 216 214 
215 217 255 
255 253 215 
216 254 256 
256 218 216 
217 219 257 
257 255 217 
218 256 258 
258 220 218 
219 220 259 
259 257 219 
220 258 260 
260 259 220 
221 243 261 
221 261 223 
242 222 262 
224 262 222 
223 263 225 
263 223 261 
262 224 264 
226 264 224 
225 265 227 
265 225 263 
264 226 266 
228 266 226 
227 267 230 
267 227 265 
266 228 268 
229 268 228 
229 269 268 
269 229 231 
230 270 232 
270 230 267 
231 271 269 
271 231 234 
232 272 233 
272 232 270 
233 273 235 
273 233 272 
234 274 271 
274 234 236 
235 275 237 
275 235 273 
236 276 274 
276 236 238 
237 277 240 
277 237 275 
238 278 276 
278 238 239 
239 279 278 
279 239 241 
240 280 241 
280 240 277 
241 281 279 
281 241 280 
244 242 282 
262 282 242 
243 245 283 
283 261 243 
246 244 284 
282 284 244 
245 247 285 
285 283 245 
248 246 286 
284 286 246 
247 249 287 
287 285 247 
248 286 288 
288 250 248 
249 251 289 
289 287 249 
250 288 290 
290 252 250 
251 253 291 
291 289 251 
252 290 292 
292 254 252 
253 255 293 
293 291 253 
254 292 294 
294 256 254 
255 257 295 
295 293 255 
256 294 296 
296 258 256 
257 259 297 
297 295 257 
258 296 298 
298 260 258 
259 260 299 
299 297 259 
260 298 300 
300 299 260 
261 283 301 
261 301 263 
282 262 302 
264 302 262 
263 303 265 
303 263 301 
302 264 304 
266 304 264 
265 305 267 
305 265 303 
304 266 306 
268 306 266 
267 307 270 
307 267 305 
268 308 306 
308 268 269 
269 309 308 
309 269 271 
270 310 272 
310 270 307 
271 311 309 
311 271 274 
272 312 273 
312 272 310 
273 313 275 
313 273 312 
274 314 311 
314 274 276 
275 315 277 
315 275 313 
276 316 314 
316 276 278 
277 317 280 
317 277 315 
278 318 316 
318 278 279 
279 319 318 
319 279 281 
280 320 281 
320 280 317 
281 321 319 
321 281 320 
284 282 322 
302 322 282 
283 285 323 
323 301 283 
286 284 324 
322 324 284 
285 287 325 
325 323 285 
286 324 326 
326 288 286 
287 289 327 
327 325 287 
288 326 328 
328 290 288 
289 291 329 
329 327 289 
290 328 330 
330 292 290 
291 293 331 
331 329 291 
292 330 332 
332 294 292 
293 295 333 
333 331 293 
294 332 334 
334 296 294 
295 297 335 
335 333 295 
296 334 336 
336 298 296 
297 299 337 
337 335 297 
298 336 338 
338 300 298 
299 300 339 
339 337 299 
300 338 340 
340 339 300 
301 323 341 
301 341 303 
322 302 342 
304 342 302 
303 343 305 
343 303 341 
342 304 344 
306 344 304 
305 345 307 
345 305 343 
306 346 344 
346 306 308 
307 347 310 
347 307 345 
308 348 346 
348 308 309 
309 349 348 
349 309 311 
310 350 312 
350 310 347 
311 351 349 
351 311 314 
312 352 313 
352 312 350 
313 353 315 
353 313 352 
314 354 351 
354 314 316 
315 355 317 
355 315 353 
316 356 354 
356 316 318 