Variables=x,y,z
Zone n=1331, e=6000, f=fepoint, et=tetrahedron
1 0 1 
0.90000000000000002 0 1 
0.80000000000000004 0 1 
0.69999999999999996 0 1 
0.59999999999999998 0 1 
0.5 0 1 
0.40000000000000002 0 1 
0.29999999999999999 0 1 
0.20000000000000001 0 1 
0.099999999999999978 0 1 
0 0 1 
1 0 0.90000000000000002 
1 0 0.80000000000000004 
1 0 0.69999999999999996 
1 0 0.59999999999999998 
1 0 0.5 
1 0 0.40000000000000002 
1 0 0.29999999999999999 
1 0 0.20000000000000001 
1 0 0.099999999999999978 
1 0 0 
1 0.099999999999999978 1 
0.90000000000000002 0 0.90000000000000002 
0.90000000000000002 0.099999999999999978 1 
0.80000000000000004 0 0.90000000000000002 
0.80000000000000004 0.099999999999999978 1 
0.69999999999999996 0 0.90000000000000002 
0.69999999999999996 0.099999999999999978 1 
0.59999999999999998 0 0.90000000000000002 
0.5 0 0.90000000000000002 
0.59999999999999998 0.099999999999999978 1 
0.40000000000000002 0 0.90000000000000002 
0.5 0.099999999999999978 1 
0.40000000000000002 0.099999999999999978 1 
0.29999999999999999 0 0.90000000000000002 
0.29999999999999999 0.099999999999999978 1 
0.20000000000000001 0 0.90000000000000002 
0.20000000000000001 0.099999999999999978 1 
0.099999999999999978 0 0.90000000000000002 
0 0 0.90000000000000002 
0.099999999999999978 0.099999999999999978 1 
0 0.099999999999999978 1 
0.90000000000000002 0 0.80000000000000004 
1 0.099999999999999978 0.90000000000000002 
0.90000000000000002 0 0.69999999999999996 
1 0.099999999999999978 0.80000000000000004 
0.90000000000000002 0 0.59999999999999998 
1 0.099999999999999978 0.69999999999999996 
0.90000000000000002 0 0.5 
1 0.099999999999999978 0.59999999999999998 
0.90000000000000002 0 0.40000000000000002 
1 0.099999999999999978 0.5 
0.90000000000000002 0 0.29999999999999999 
1 0.099999999999999978 0.40000000000000002 
0.90000000000000002 0 0.20000000000000001 
1 0.099999999999999978 0.29999999999999999 
0.90000000000000002 0 0.099999999999999978 
1 0.099999999999999978 0.20000000000000001 
0.90000000000000002 0 0 
1 0.099999999999999978 0.099999999999999978 
1 0.099999999999999978 0 
1 0.20000000000000001 1 
0.90000000000000002 0.099999999999999978 0.90000000000000002 
0.80000000000000004 0 0.80000000000000004 
0.90000000000000002 0.20000000000000001 1 
0.80000000000000004 0.099999999999999978 0.90000000000000002 
0.69999999999999996 0 0.80000000000000004 
0.80000000000000004 0.20000000000000001 1 
0.69999999999999996 0.099999999999999978 0.90000000000000002 
0.59999999999999998 0 0.80000000000000004 
0.69999999999999996 0.20000000000000001 1 
0.59999999999999998 0.099999999999999978 0.90000000000000002 
0.5 0 0.80000000000000004 
0.40000000000000002 0 0.80000000000000004 
0.5 0.099999999999999978 0.90000000000000002 
0.59999999999999998 0.20000000000000001 1 
0.29999999999999999 0 0.80000000000000004 
0.40000000000000002 0.099999999999999978 0.90000000000000002 
0.5 0.20000000000000001 1 
0.40000000000000002 0.20000000000000001 1 
0.29999999999999999 0.099999999999999978 0.90000000000000002 
0.20000000000000001 0 0.80000000000000004 
0.29999999999999999 0.20000000000000001 1 
0.20000000000000001 0.099999999999999978 0.90000000000000002 
0.099999999999999978 0 0.80000000000000004 
0.20000000000000001 0.20000000000000001 1 
0.099999999999999978 0.099999999999999978 0.90000000000000002 
0 0 0.80000000000000004 
0 0.099999999999999978 0.90000000000000002 
0.099999999999999978 0.20000000000000001 1 
0 0.20000000000000001 1 
0.80000000000000004 0 0.69999999999999996 
0.90000000000000002 0.099999999999999978 0.80000000000000004 
1 0.20000000000000001 0.90000000000000002 
0.80000000000000004 0 0.59999999999999998 
0.90000000000000002 0.099999999999999978 0.69999999999999996 
1 0.20000000000000001 0.80000000000000004 
0.80000000000000004 0 0.5 
0.90000000000000002 0.099999999999999978 0.59999999999999998 
1 0.20000000000000001 0.69999999999999996 
0.80000000000000004 0 0.40000000000000002 
0.90000000000000002 0.099999999999999978 0.5 
1 0.20000000000000001 0.59999999999999998 
0.80000000000000004 0 0.29999999999999999 
0.90000000000000002 0.099999999999999978 0.40000000000000002 
1 0.20000000000000001 0.5 
0.80000000000000004 0 0.20000000000000001 
0.90000000000000002 0.099999999999999978 0.29999999999999999 
1 0.20000000000000001 0.40000000000000002 
0.80000000000000004 0 0.099999999999999978 
0.90000000000000002 0.099999999999999978 0.20000000000000001 
1 0.20000000000000001 0.29999999999999999 
0.80000000000000004 0 0 
0.90000000000000002 0.099999999999999978 0.099999999999999978 
1 0.20000000000000001 0.20000000000000001 
0.90000000000000002 0.099999999999999978 0 
1 0.20000000000000001 0.099999999999999978 
1 0.20000000000000001 0 
1 0.29999999999999999 1 
0.90000000000000002 0.20000000000000001 0.90000000000000002 
0.80000000000000004 0.099999999999999978 0.80000000000000004 
0.69999999999999996 0 0.69999999999999996 
0.90000000000000002 0.29999999999999999 1 
0.80000000000000004 0.20000000000000001 0.90000000000000002 
0.69999999999999996 0.099999999999999978 0.80000000000000004 
0.59999999999999998 0 0.69999999999999996 
0.80000000000000004 0.29999999999999999 1 
0.69999999999999996 0.20000000000000001 0.90000000000000002 
0.59999999999999998 0.099999999999999978 0.80000000000000004 
0.5 0 0.69999999999999996 
0.69999999999999996 0.29999999999999999 1 
0.59999999999999998 0.20000000000000001 0.90000000000000002 
0.5 0.099999999999999978 0.80000000000000004 
0.40000000000000002 0 0.69999999999999996 
0.29999999999999999 0 0.69999999999999996 
0.40000000000000002 0.099999999999999978 0.80000000000000004 
0.5 0.20000000000000001 0.90000000000000002 
0.59999999999999998 0.29999999999999999 1 
0.20000000000000001 0 0.69999999999999996 
0.29999999999999999 0.099999999999999978 0.80000000000000004 
0.40000000000000002 0.20000000000000001 0.90000000000000002 
0.5 0.29999999999999999 1 
0.40000000000000002 0.29999999999999999 1 
0.29999999999999999 0.20000000000000001 0.90000000000000002 
0.20000000000000001 0.099999999999999978 0.80000000000000004 
0.099999999999999978 0 0.69999999999999996 
0.29999999999999999 0.29999999999999999 1 
0.20000000000000001 0.20000000000000001 0.90000000000000002 
0.099999999999999978 0.099999999999999978 0.80000000000000004 
0 0 0.69999999999999996 
0.20000000000000001 0.29999999999999999 1 
0.099999999999999978 0.20000000000000001 0.90000000000000002 
0 0.099999999999999978 0.80000000000000004 
0 0.20000000000000001 0.90000000000000002 
0.099999999999999978 0.29999999999999999 1 
0 0.29999999999999999 1 
0.69999999999999996 0 0.59999999999999998 
0.80000000000000004 0.099999999999999978 0.69999999999999996 
0.90000000000000002 0.20000000000000001 0.80000000000000004 
1 0.29999999999999999 0.90000000000000002 
0.69999999999999996 0 0.5 
0.80000000000000004 0.099999999999999978 0.59999999999999998 
0.90000000000000002 0.20000000000000001 0.69999999999999996 
1 0.29999999999999999 0.80000000000000004 
0.69999999999999996 0 0.40000000000000002 
0.80000000000000004 0.099999999999999978 0.5 
0.90000000000000002 0.20000000000000001 0.59999999999999998 
1 0.29999999999999999 0.69999999999999996 
0.69999999999999996 0 0.29999999999999999 
0.80000000000000004 0.099999999999999978 0.40000000000000002 
0.90000000000000002 0.20000000000000001 0.5 
1 0.29999999999999999 0.59999999999999998 
0.69999999999999996 0 0.20000000000000001 
0.80000000000000004 0.099999999999999978 0.29999999999999999 
0.90000000000000002 0.20000000000000001 0.40000000000000002 
1 0.29999999999999999 0.5 
0.69999999999999996 0 0.099999999999999978 
0.80000000000000004 0.099999999999999978 0.20000000000000001 
0.90000000000000002 0.20000000000000001 0.29999999999999999 
1 0.29999999999999999 0.40000000000000002 
0.69999999999999996 0 0 
0.80000000000000004 0.099999999999999978 0.099999999999999978 
0.90000000000000002 0.20000000000000001 0.20000000000000001 
1 0.29999999999999999 0.29999999999999999 
0.80000000000000004 0.099999999999999978 0 
0.90000000000000002 0.20000000000000001 0.099999999999999978 
1 0.29999999999999999 0.20000000000000001 
0.90000000000000002 0.20000000000000001 0 
1 0.29999999999999999 0.099999999999999978 
1 0.29999999999999999 0 
1 0.40000000000000002 1 
0.90000000000000002 0.29999999999999999 0.90000000000000002 
0.80000000000000004 0.20000000000000001 0.80000000000000004 
0.69999999999999996 0.099999999999999978 0.69999999999999996 
0.59999999999999998 0 0.59999999999999998 
0.90000000000000002 0.40000000000000002 1 
0.80000000000000004 0.29999999999999999 0.90000000000000002 
0.69999999999999996 0.20000000000000001 0.80000000000000004 
0.59999999999999998 0.099999999999999978 0.69999999999999996 
0.5 0 0.59999999999999998 
0.80000000000000004 0.40000000000000002 1 
0.69999999999999996 0.29999999999999999 0.90000000000000002 
0.59999999999999998 0.20000000000000001 0.80000000000000004 
0.5 0.099999999999999978 0.69999999999999996 
0.40000000000000002 0 0.59999999999999998 
0.69999999999999996 0.40000000000000002 1 
0.59999999999999998 0.29999999999999999 0.90000000000000002 
0.5 0.20000000000000001 0.80000000000000004 
0.40000000000000002 0.099999999999999978 0.69999999999999996 
0.29999999999999999 0 0.59999999999999998 
0.20000000000000001 0 0.59999999999999998 
0.29999999999999999 0.099999999999999978 0.69999999999999996 
0.40000000000000002 0.20000000000000001 0.80000000000000004 
0.5 0.29999999999999999 0.90000000000000002 
0.59999999999999998 0.40000000000000002 1 
0.099999999999999978 0 0.59999999999999998 
0.20000000000000001 0.099999999999999978 0.69999999999999996 
0.29999999999999999 0.20000000000000001 0.80000000000000004 
0.40000000000000002 0.29999999999999999 0.90000000000000002 
0.5 0.40000000000000002 1 
0.40000000000000002 0.40000000000000002 1 
0.29999999999999999 0.29999999999999999 0.90000000000000002 
0.20000000000000001 0.20000000000000001 0.80000000000000004 
0.099999999999999978 0.099999999999999978 0.69999999999999996 
0 0 0.59999999999999998 
0.29999999999999999 0.40000000000000002 1 
0.20000000000000001 0.29999999999999999 0.90000000000000002 
0.099999999999999978 0.20000000000000001 0.80000000000000004 
0 0.099999999999999978 0.69999999999999996 
0.20000000000000001 0.40000000000000002 1 
0.099999999999999978 0.29999999999999999 0.90000000000000002 
0 0.20000000000000001 0.80000000000000004 
0 0.29999999999999999 0.90000000000000002 
0.099999999999999978 0.40000000000000002 1 
0 0.40000000000000002 1 
0.59999999999999998 0 0.5 
0.69999999999999996 0.099999999999999978 0.59999999999999998 
0.80000000000000004 0.20000000000000001 0.69999999999999996 
0.90000000000000002 0.29999999999999999 0.80000000000000004 
1 0.40000000000000002 0.90000000000000002 
0.59999999999999998 0 0.40000000000000002 
0.69999999999999996 0.099999999999999978 0.5 
0.80000000000000004 0.20000000000000001 0.59999999999999998 
0.90000000000000002 0.29999999999999999 0.69999999999999996 
1 0.40000000000000002 0.80000000000000004 
0.59999999999999998 0 0.29999999999999999 
0.69999999999999996 0.099999999999999978 0.40000000000000002 
0.80000000000000004 0.20000000000000001 0.5 
0.90000000000000002 0.29999999999999999 0.59999999999999998 
1 0.40000000000000002 0.69999999999999996 
0.59999999999999998 0 0.20000000000000001 
0.69999999999999996 0.099999999999999978 0.29999999999999999 
0.80000000000000004 0.20000000000000001 0.40000000000000002 
0.90000000000000002 0.29999999999999999 0.5 
1 0.40000000000000002 0.59999999999999998 
0.59999999999999998 0 0.099999999999999978 
0.69999999999999996 0.099999999999999978 0.20000000000000001 
0.80000000000000004 0.20000000000000001 0.29999999999999999 
0.90000000000000002 0.29999999999999999 0.40000000000000002 
1 0.40000000000000002 0.5 
0.59999999999999998 0 0 
0.69999999999999996 0.099999999999999978 0.099999999999999978 
0.80000000000000004 0.20000000000000001 0.20000000000000001 
0.90000000000000002 0.29999999999999999 0.29999999999999999 
1 0.40000000000000002 0.40000000000000002 
0.69999999999999996 0.099999999999999978 0 
0.80000000000000004 0.20000000000000001 0.099999999999999978 
0.90000000000000002 0.29999999999999999 0.20000000000000001 
1 0.40000000000000002 0.29999999999999999 
0.80000000000000004 0.20000000000000001 0 
0.90000000000000002 0.29999999999999999 0.099999999999999978 
1 0.40000000000000002 0.20000000000000001 
0.90000000000000002 0.29999999999999999 0 
1 0.40000000000000002 0.099999999999999978 
1 0.40000000000000002 0 
1 0.5 1 
0.90000000000000002 0.40000000000000002 0.90000000000000002 
0.80000000000000004 0.29999999999999999 0.80000000000000004 
0.69999999999999996 0.20000000000000001 0.69999999999999996 
0.59999999999999998 0.099999999999999978 0.59999999999999998 
0.5 0 0.5 
0.90000000000000002 0.5 1 
0.80000000000000004 0.40000000000000002 0.90000000000000002 
0.69999999999999996 0.29999999999999999 0.80000000000000004 
0.59999999999999998 0.20000000000000001 0.69999999999999996 
0.5 0.099999999999999978 0.59999999999999998 
0.40000000000000002 0 0.5 
0.80000000000000004 0.5 1 
0.69999999999999996 0.40000000000000002 0.90000000000000002 
0.59999999999999998 0.29999999999999999 0.80000000000000004 
0.5 0.20000000000000001 0.69999999999999996 
0.40000000000000002 0.099999999999999978 0.59999999999999998 
0.29999999999999999 0 0.5 
0.69999999999999996 0.5 1 
0.59999999999999998 0.40000000000000002 0.90000000000000002 
0.5 0.29999999999999999 0.80000000000000004 
0.40000000000000002 0.20000000000000001 0.69999999999999996 
0.29999999999999999 0.099999999999999978 0.59999999999999998 
0.20000000000000001 0 0.5 
0.099999999999999978 0 0.5 
0.20000000000000001 0.099999999999999978 0.59999999999999998 
0.29999999999999999 0.20000000000000001 0.69999999999999996 
0.40000000000000002 0.29999999999999999 0.80000000000000004 
0.5 0.40000000000000002 0.90000000000000002 
0.59999999999999998 0.5 1 
0 0 0.5 
0.099999999999999978 0.099999999999999978 0.59999999999999998 
0.20000000000000001 0.20000000000000001 0.69999999999999996 
0.29999999999999999 0.29999999999999999 0.80000000000000004 
0.40000000000000002 0.40000000000000002 0.90000000000000002 
0.5 0.5 1 
0.40000000000000002 0.5 1 
0.29999999999999999 0.40000000000000002 0.90000000000000002 
0.20000000000000001 0.29999999999999999 0.80000000000000004 
0.099999999999999978 0.20000000000000001 0.69999999999999996 
0 0.099999999999999978 0.59999999999999998 
0.29999999999999999 0.5 1 
0.20000000000000001 0.40000000000000002 0.90000000000000002 
0.099999999999999978 0.29999999999999999 0.80000000000000004 
0 0.20000000000000001 0.69999999999999996 
0.20000000000000001 0.5 1 
0.099999999999999978 0.40000000000000002 0.90000000000000002 
0 0.29999999999999999 0.80000000000000004 
0 0.40000000000000002 0.90000000000000002 
0.099999999999999978 0.5 1 
0 0.5 1 
0.5 0 0.40000000000000002 
0.59999999999999998 0.099999999999999978 0.5 
0.69999999999999996 0.20000000000000001 0.59999999999999998 
0.80000000000000004 0.29999999999999999 0.69999999999999996 
0.90000000000000002 0.40000000000000002 0.80000000000000004 
1 0.5 0.90000000000000002 
0.5 0 0.29999999999999999 
0.59999999999999998 0.099999999999999978 0.40000000000000002 
0.69999999999999996 0.20000000000000001 0.5 
0.80000000000000004 0.29999999999999999 0.59999999999999998 
0.90000000000000002 0.40000000000000002 0.69999999999999996 
1 0.5 0.80000000000000004 
0.5 0 0.20000000000000001 
0.59999999999999998 0.099999999999999978 0.29999999999999999 
0.69999999999999996 0.20000000000000001 0.40000000000000002 
0.80000000000000004 0.29999999999999999 0.5 
0.90000000000000002 0.40000000000000002 0.59999999999999998 
1 0.5 0.69999999999999996 
0.5 0 0.099999999999999978 
0.59999999999999998 0.099999999999999978 0.20000000000000001 
0.69999999999999996 0.20000000000000001 0.29999999999999999 
0.80000000000000004 0.29999999999999999 0.40000000000000002 
0.90000000000000002 0.40000000000000002 0.5 
1 0.5 0.59999999999999998 
0.5 0 0 
0.59999999999999998 0.099999999999999978 0.099999999999999978 
0.69999999999999996 0.20000000000000001 0.20000000000000001 
0.80000000000000004 0.29999999999999999 0.29999999999999999 
0.90000000000000002 0.40000000000000002 0.40000000000000002 
1 0.5 0.5 
0.59999999999999998 0.099999999999999978 0 
0.69999999999999996 0.20000000000000001 0.099999999999999978 
0.80000000000000004 0.29999999999999999 0.20000000000000001 
0.90000000000000002 0.40000000000000002 0.29999999999999999 
1 0.5 0.40000000000000002 
0.69999999999999996 0.20000000000000001 0 
0.80000000000000004 0.29999999999999999 0.099999999999999978 
0.90000000000000002 0.40000000000000002 0.20000000000000001 
1 0.5 0.29999999999999999 
0.80000000000000004 0.29999999999999999 0 
0.90000000000000002 0.40000000000000002 0.099999999999999978 
1 0.5 0.20000000000000001 
0.90000000000000002 0.40000000000000002 0 
1 0.5 0.099999999999999978 
1 0.5 0 
1 0.59999999999999998 1 
0.90000000000000002 0.5 0.90000000000000002 
0.80000000000000004 0.40000000000000002 0.80000000000000004 
0.69999999999999996 0.29999999999999999 0.69999999999999996 
0.59999999999999998 0.20000000000000001 0.59999999999999998 
0.5 0.099999999999999978 0.5 
0.40000000000000002 0 0.40000000000000002 
0.90000000000000002 0.59999999999999998 1 
0.80000000000000004 0.5 0.90000000000000002 
0.69999999999999996 0.40000000000000002 0.80000000000000004 
0.59999999999999998 0.29999999999999999 0.69999999999999996 
0.5 0.20000000000000001 0.59999999999999998 
0.40000000000000002 0.099999999999999978 0.5 
0.29999999999999999 0 0.40000000000000002 
0.80000000000000004 0.59999999999999998 1 
0.69999999999999996 0.5 0.90000000000000002 
0.59999999999999998 0.40000000000000002 0.80000000000000004 
0.5 0.29999999999999999 0.69999999999999996 
0.40000000000000002 0.20000000000000001 0.59999999999999998 
0.29999999999999999 0.099999999999999978 0.5 
0.20000000000000001 0 0.40000000000000002 
0.69999999999999996 0.59999999999999998 1 
0.59999999999999998 0.5 0.90000000000000002 
0.5 0.40000000000000002 0.80000000000000004 
0.40000000000000002 0.29999999999999999 0.69999999999999996 
0.29999999999999999 0.20000000000000001 0.59999999999999998 
0.20000000000000001 0.099999999999999978 0.5 
0.099999999999999978 0 0.40000000000000002 
0 0 0.40000000000000002 
0.099999999999999978 0.099999999999999978 0.5 
0.20000000000000001 0.20000000000000001 0.59999999999999998 
0.29999999999999999 0.29999999999999999 0.69999999999999996 
0.40000000000000002 0.40000000000000002 0.80000000000000004 
0.5 0.5 0.90000000000000002 
0.59999999999999998 0.59999999999999998 1 
0 0.099999999999999978 0.5 
0.099999999999999978 0.20000000000000001 0.59999999999999998 
0.20000000000000001 0.29999999999999999 0.69999999999999996 
0.29999999999999999 0.40000000000000002 0.80000000000000004 
0.40000000000000002 0.5 0.90000000000000002 
0.5 0.59999999999999998 1 
0.40000000000000002 0.59999999999999998 1 
0.29999999999999999 0.5 0.90000000000000002 
0.20000000000000001 0.40000000000000002 0.80000000000000004 
0.099999999999999978 0.29999999999999999 0.69999999999999996 
0 0.20000000000000001 0.59999999999999998 
0.29999999999999999 0.59999999999999998 1 
0.20000000000000001 0.5 0.90000000000000002 
0.099999999999999978 0.40000000000000002 0.80000000000000004 
0 0.29999999999999999 0.69999999999999996 
0.20000000000000001 0.59999999999999998 1 
0.099999999999999978 0.5 0.90000000000000002 
0 0.40000000000000002 0.80000000000000004 
0 0.5 0.90000000000000002 
0.099999999999999978 0.59999999999999998 1 
0 0.59999999999999998 1 
0.40000000000000002 0 0.29999999999999999 
0.5 0.099999999999999978 0.40000000000000002 
0.59999999999999998 0.20000000000000001 0.5 
0.69999999999999996 0.29999999999999999 0.59999999999999998 
0.80000000000000004 0.40000000000000002 0.69999999999999996 
0.90000000000000002 0.5 0.80000000000000004 
1 0.59999999999999998 0.90000000000000002 
0.40000000000000002 0 0.20000000000000001 
0.5 0.099999999999999978 0.29999999999999999 
0.59999999999999998 0.20000000000000001 0.40000000000000002 
0.69999999999999996 0.29999999999999999 0.5 
0.80000000000000004 0.40000000000000002 0.59999999999999998 
0.90000000000000002 0.5 0.69999999999999996 
1 0.59999999999999998 0.80000000000000004 
0.40000000000000002 0 0.099999999999999978 
0.5 0.099999999999999978 0.20000000000000001 
0.59999999999999998 0.20000000000000001 0.29999999999999999 
0.69999999999999996 0.29999999999999999 0.40000000000000002 
0.80000000000000004 0.40000000000000002 0.5 
0.90000000000000002 0.5 0.59999999999999998 
1 0.59999999999999998 0.69999999999999996 
0.40000000000000002 0 0 
0.5 0.099999999999999978 0.099999999999999978 
0.59999999999999998 0.20000000000000001 0.20000000000000001 
0.69999999999999996 0.29999999999999999 0.29999999999999999 
0.80000000000000004 0.40000000000000002 0.40000000000000002 
0.90000000000000002 0.5 0.5 
1 0.59999999999999998 0.59999999999999998 
0.5 0.099999999999999978 0 
0.59999999999999998 0.20000000000000001 0.099999999999999978 
0.69999999999999996 0.29999999999999999 0.20000000000000001 
0.80000000000000004 0.40000000000000002 0.29999999999999999 
0.90000000000000002 0.5 0.40000000000000002 
1 0.59999999999999998 0.5 
0.59999999999999998 0.20000000000000001 0 
0.69999999999999996 0.29999999999999999 0.099999999999999978 
0.80000000000000004 0.40000000000000002 0.20000000000000001 
0.90000000000000002 0.5 0.29999999999999999 
1 0.59999999999999998 0.40000000000000002 
0.69999999999999996 0.29999999999999999 0 
0.80000000000000004 0.40000000000000002 0.099999999999999978 
0.90000000000000002 0.5 0.20000000000000001 
1 0.59999999999999998 0.29999999999999999 
0.80000000000000004 0.40000000000000002 0 
0.90000000000000002 0.5 0.099999999999999978 
1 0.59999999999999998 0.20000000000000001 
0.90000000000000002 0.5 0 
1 0.59999999999999998 0.099999999999999978 
1 0.59999999999999998 0 
1 0.69999999999999996 1 
0.90000000000000002 0.59999999999999998 0.90000000000000002 
0.80000000000000004 0.5 0.80000000000000004 
0.69999999999999996 0.40000000000000002 0.69999999999999996 
0.59999999999999998 0.29999999999999999 0.59999999999999998 
0.5 0.20000000000000001 0.5 
0.40000000000000002 0.099999999999999978 0.40000000000000002 
0.29999999999999999 0 0.29999999999999999 
0.90000000000000002 0.69999999999999996 1 
0.80000000000000004 0.59999999999999998 0.90000000000000002 
0.69999999999999996 0.5 0.80000000000000004 
0.59999999999999998 0.40000000000000002 0.69999999999999996 
0.5 0.29999999999999999 0.59999999999999998 
0.40000000000000002 0.20000000000000001 0.5 
0.29999999999999999 0.099999999999999978 0.40000000000000002 
0.20000000000000001 0 0.29999999999999999 
0.80000000000000004 0.69999999999999996 1 
0.69999999999999996 0.59999999999999998 0.90000000000000002 
0.59999999999999998 0.5 0.80000000000000004 
0.5 0.40000000000000002 0.69999999999999996 
0.40000000000000002 0.29999999999999999 0.59999999999999998 
0.29999999999999999 0.20000000000000001 0.5 
0.20000000000000001 0.099999999999999978 0.40000000000000002 
0.099999999999999978 0 0.29999999999999999 
0.69999999999999996 0.69999999999999996 1 
0.59999999999999998 0.59999999999999998 0.90000000000000002 
0.5 0.5 0.80000000000000004 
0.40000000000000002 0.40000000000000002 0.69999999999999996 
0.29999999999999999 0.29999999999999999 0.59999999999999998 
0.20000000000000001 0.20000000000000001 0.5 
0.099999999999999978 0.099999999999999978 0.40000000000000002 
0 0 0.29999999999999999 
0 0.099999999999999978 0.40000000000000002 
0.099999999999999978 0.20000000000000001 0.5 
0.20000000000000001 0.29999999999999999 0.59999999999999998 
0.29999999999999999 0.40000000000000002 0.69999999999999996 
0.40000000000000002 0.5 0.80000000000000004 
0.5 0.59999999999999998 0.90000000000000002 
0.59999999999999998 0.69999999999999996 1 
0 0.20000000000000001 0.5 
0.099999999999999978 0.29999999999999999 0.59999999999999998 
0.20000000000000001 0.40000000000000002 0.69999999999999996 
0.29999999999999999 0.5 0.80000000000000004 
0.40000000000000002 0.59999999999999998 0.90000000000000002 
0.5 0.69999999999999996 1 
0.40000000000000002 0.69999999999999996 1 
0.29999999999999999 0.59999999999999998 0.90000000000000002 
0.20000000000000001 0.5 0.80000000000000004 
0.099999999999999978 0.40000000000000002 0.69999999999999996 
0 0.29999999999999999 0.59999999999999998 
0.29999999999999999 0.69999999999999996 1 
0.20000000000000001 0.59999999999999998 0.90000000000000002 
0.099999999999999978 0.5 0.80000000000000004 
0 0.40000000000000002 0.69999999999999996 
0.20000000000000001 0.69999999999999996 1 
0.099999999999999978 0.59999999999999998 0.90000000000000002 
0 0.5 0.80000000000000004 
0 0.59999999999999998 0.90000000000000002 
0.099999999999999978 0.69999999999999996 1 
0 0.69999999999999996 1 
0.29999999999999999 0 0.20000000000000001 
0.40000000000000002 0.099999999999999978 0.29999999999999999 
0.5 0.20000000000000001 0.40000000000000002 
0.59999999999999998 0.29999999999999999 0.5 
0.69999999999999996 0.40000000000000002 0.59999999999999998 
0.80000000000000004 0.5 0.69999999999999996 
0.90000000000000002 0.59999999999999998 0.80000000000000004 
1 0.69999999999999996 0.90000000000000002 
0.29999999999999999 0 0.099999999999999978 
0.40000000000000002 0.099999999999999978 0.20000000000000001 
0.5 0.20000000000000001 0.29999999999999999 
0.59999999999999998 0.29999999999999999 0.40000000000000002 
0.69999999999999996 0.40000000000000002 0.5 
0.80000000000000004 0.5 0.59999999999999998 
0.90000000000000002 0.59999999999999998 0.69999999999999996 
1 0.69999999999999996 0.80000000000000004 
0.29999999999999999 0 0 
0.40000000000000002 0.099999999999999978 0.099999999999999978 
0.5 0.20000000000000001 0.20000000000000001 
0.59999999999999998 0.29999999999999999 0.29999999999999999 
0.69999999999999996 0.40000000000000002 0.40000000000000002 
0.80000000000000004 0.5 0.5 
0.90000000000000002 0.59999999999999998 0.59999999999999998 
1 0.69999999999999996 0.69999999999999996 
0.40000000000000002 0.099999999999999978 0 
0.5 0.20000000000000001 0.099999999999999978 
0.59999999999999998 0.29999999999999999 0.20000000000000001 
0.69999999999999996 0.40000000000000002 0.29999999999999999 
0.80000000000000004 0.5 0.40000000000000002 
0.90000000000000002 0.59999999999999998 0.5 
1 0.69999999999999996 0.59999999999999998 
0.5 0.20000000000000001 0 
0.59999999999999998 0.29999999999999999 0.099999999999999978 
0.69999999999999996 0.40000000000000002 0.20000000000000001 
0.80000000000000004 0.5 0.29999999999999999 
0.90000000000000002 0.59999999999999998 0.40000000000000002 
1 0.69999999999999996 0.5 
0.59999999999999998 0.29999999999999999 0 
0.69999999999999996 0.40000000000000002 0.099999999999999978 
0.80000000000000004 0.5 0.20000000000000001 
0.90000000000000002 0.59999999999999998 0.29999999999999999 
1 0.69999999999999996 0.40000000000000002 
0.69999999999999996 0.40000000000000002 0 
0.80000000000000004 0.5 0.099999999999999978 
0.90000000000000002 0.59999999999999998 0.20000000000000001 
1 0.69999999999999996 0.29999999999999999 
0.80000000000000004 0.5 0 
0.90000000000000002 0.59999999999999998 0.099999999999999978 
1 0.69999999999999996 0.20000000000000001 
0.90000000000000002 0.59999999999999998 0 
1 0.69999999999999996 0.099999999999999978 
1 0.69999999999999996 0 
1 0.80000000000000004 1 
0.90000000000000002 0.69999999999999996 0.90000000000000002 
0.80000000000000004 0.59999999999999998 0.80000000000000004 
0.69999999999999996 0.5 0.69999999999999996 
0.59999999999999998 0.40000000000000002 0.59999999999999998 
0.5 0.29999999999999999 0.5 
0.40000000000000002 0.20000000000000001 0.40000000000000002 
0.29999999999999999 0.099999999999999978 0.29999999999999999 
0.20000000000000001 0 0.20000000000000001 
0.90000000000000002 0.80000000000000004 1 
0.80000000000000004 0.69999999999999996 0.90000000000000002 
0.69999999999999996 0.59999999999999998 0.80000000000000004 
0.59999999999999998 0.5 0.69999999999999996 
0.5 0.40000000000000002 0.59999999999999998 
0.40000000000000002 0.29999999999999999 0.5 
0.29999999999999999 0.20000000000000001 0.40000000000000002 
0.20000000000000001 0.099999999999999978 0.29999999999999999 
0.099999999999999978 0 0.20000000000000001 
0.80000000000000004 0.80000000000000004 1 
0.69999999999999996 0.69999999999999996 0.90000000000000002 
0.59999999999999998 0.59999999999999998 0.80000000000000004 
0.5 0.5 0.69999999999999996 
0.40000000000000002 0.40000000000000002 0.59999999999999998 
0.29999999999999999 0.29999999999999999 0.5 
0.20000000000000001 0.20000000000000001 0.40000000000000002 
0.099999999999999978 0.099999999999999978 0.29999999999999999 
0 0 0.20000000000000001 
0.69999999999999996 0.80000000000000004 1 
0.59999999999999998 0.69999999999999996 0.90000000000000002 
0.5 0.59999999999999998 0.80000000000000004 
0.40000000000000002 0.5 0.69999999999999996 
0.29999999999999999 0.40000000000000002 0.59999999999999998 
0.20000000000000001 0.29999999999999999 0.5 
0.099999999999999978 0.20000000000000001 0.40000000000000002 
0 0.099999999999999978 0.29999999999999999 
0 0.20000000000000001 0.40000000000000002 
0.099999999999999978 0.29999999999999999 0.5 
0.20000000000000001 0.40000000000000002 0.59999999999999998 
0.29999999999999999 0.5 0.69999999999999996 
0.40000000000000002 0.59999999999999998 0.80000000000000004 
0.5 0.69999999999999996 0.90000000000000002 
0.59999999999999998 0.80000000000000004 1 
0 0.29999999999999999 0.5 
0.099999999999999978 0.40000000000000002 0.59999999999999998 
0.20000000000000001 0.5 0.69999999999999996 
0.29999999999999999 0.59999999999999998 0.80000000000000004 
0.40000000000000002 0.69999999999999996 0.90000000000000002 
0.5 0.80000000000000004 1 
0.40000000000000002 0.80000000000000004 1 
0.29999999999999999 0.69999999999999996 0.90000000000000002 
0.20000000000000001 0.59999999999999998 0.80000000000000004 
0.099999999999999978 0.5 0.69999999999999996 
0 0.40000000000000002 0.59999999999999998 
0.29999999999999999 0.80000000000000004 1 
0.20000000000000001 0.69999999999999996 0.90000000000000002 
0.099999999999999978 0.59999999999999998 0.80000000000000004 