<?xml version="1.0" encoding="UTF-8"?>
<VTKFile type="UnstructuredGrid" version="0.1" byte_order="LittleEndian">
<UnstructuredGrid>
<Piece NumberOfPoints="868" NumberOfCells="3904">
<PointData>
<DataArray type="Float64" Name="u" Format="ascii">
-6.998279772882248
-6.981209091383392
-6.967936508552953
-6.946764095378272
-6.947136367682758
-6.9427687762598636
-6.860206491576596
-6.945318180176803
-6.958835874410452
-6.911305060771724
-6.953108255461588
-6.922060634051009
-6.886105396296016
-7.022638641707746
-7.016253085750393
-7.042008546841633
-7.050475082770212
-7.078781550615937
-7.057035875990478
-7.014003668648599
-7.027023808198977
-7.00699731115779
-6.920366054365307
-6.915791443245008
-6.96676107544559
-6.770317225825622
-6.908857967223689
-6.945204508271834
-6.94694816427443
-7.008361537903125
-6.959843928140852
-7.0189702362561
-7.001050815754913
-7.045556387028047
-6.804652683338632
-6.753551501105799
-6.749476131779487
-7.033455773070407
-7.019424728306119
-7.058822983380609
-6.99771002832046
-6.951003731712929
-6.60477571562824
-6.7779468424861005
-6.64533460732551
-6.799573381049659
-6.64441711356723
-7.010373456484994
-7.094214461445998
-7.055206497474715
-7.074332163135209
-7.021352624789871
-6.985589375876286
-6.645803148809347
-6.853418722493605
-6.7874094846337325
-6.63947687651158
-6.8731137641628965
-6.866950432939706
-6.69774844867898
-6.858541468444746
-6.720841511386031
-6.8506579783101555
-6.992727229767921
-7.0598580850795765
-7.0507843470890785
-7.019078665465441
-7.0134631936495015
-6.487335040874494
-6.586484078418014
-6.511850104891334
-6.4524252870478165
-6.400517013202177
-6.441904905219663
-6.266342209808257
-6.343721498319316
-6.980774835954931
-6.895510780426191
-6.837478063237145
-6.75545963779022
-6.24376857267574
-7.064484950842067
-7.014814030542907
-6.550479996752335
-6.303139536110275
-6.913997041179748
-6.924636579925106
-6.758205589726934
-6.819759445269129
-6.482142276756636
-6.550882044355993
-6.31361889968005
-6.542435007595768
-6.272681506561516
-6.524908893228596
-6.620995930656649
-6.926539152528453
-6.853424468392917
-6.058303188680383
-6.140277391398694
-6.111677474292666
-6.031277540605571
-6.087326229194712
-6.02922478087561
-5.791139364186063
-6.830020545795084
-6.639457018456063
-6.678423149292908
-6.399248217173637
-5.778345450144877
-5.856084408853633
-6.815929640594324
-6.078316991720299
-6.094913382776666
-5.841650574531671
-5.761745760529046
-6.651031505743741
-6.714254664310469
-6.385842797243887
-6.502892736083414
-5.878340744490917
-6.1192407011477465
-5.832990694515686
-5.92392262324024
-6.484290934814239
-6.1997027745643996
-6.214440283735756
-6.232517011852038
-6.61056575251585
-6.695669022737495
-5.542079313173132
-5.5998696179828755
-5.515613287877784
-5.452637581799575
-5.494749476173433
-5.247400813853383
-5.338876272249447
-6.472873513660813
-6.205152123875309
-5.8498922250825425
-5.887395906040326
-5.224337112437525
-6.494937797798087
-6.318017617443903
-5.47426188432593
-5.496394952582455
-5.574564468927729
-5.291803972399378
-5.205324573438176
-6.294138859764541
-6.212925446631723
-5.887241635888862
-5.674986877521046
-5.50750618594984
-5.584431204820348
-5.281187448950106
-6.266111747125067
-5.984312966164918
-6.011487198641344
-6.239921470993731
-4.972049023209084
-5.057745889581496
-5.039492160176142
-4.944714143467674
-5.004512759609724
-4.927518253277397
-4.674510594541367
-4.753885321497108
-5.965085067493776
-5.625766797869525
-5.253022575438222
-5.394411664110077
-4.641273074842048
-4.722477475068744
-5.976876324023281
-6.034003230819139
-4.9042087192303265
-5.0299949578833925
-4.994807856864411
-4.707539984605261
-4.625175253491236
-5.648865660455393
-5.321680776327234
-5.4417255206912065
-5.004397136972936
-5.119980359051436
-4.692316895402806
-4.814734302652011
-5.759232378401745
-5.616708490232565
-5.695192484975107
-4.411379017370237
-4.4901286250905645
-4.458207274191593
-4.384762776696417
-4.303617885391533
-4.359066980676054
-4.150687062144585
-5.36906713581596
-5.101780467215831
-4.9801971785939685
-4.731404488986825
-4.622164160226355
-4.689283097453622
-4.360549974989305
-4.115752667935027
-4.16523780760032
-5.3823794792048165
-4.422067602295283
-4.0975193622135455
-5.078856414302563
-5.156372085069507
-4.746577044265502
-4.702273092762938
-4.857267805364296
-4.4393387550759105
-4.132492949364254
-4.158487432664381
-4.214856697441794
-5.079240454370207
-5.215457588489418
-4.935961714390233
-3.980317060283839
-3.9387023187921457
-4.006192678829237
-3.911460301995
-3.8460320485382327
-3.8696807845984016
-3.8973662488168506
-3.7487040311628443
-4.297852521669539
-4.709286460329886
-3.8391366423420643
-4.4920853354811525
-4.364512249262753
-4.1089289107674976
-4.178173435092232
-3.696012969482294
-4.785887271086282
-3.9632749626102703
-3.6387844191787897
-3.6436658563819857
-3.6582957248085948
-3.7819185610837436
-3.675555178824212
-4.416351148221393
-4.5027212153935805
-4.538853240951345
-4.213890911280892
-4.2981686293754695
-3.9450652634528676
-3.8904767357681425
-3.933986300803606
-3.747504191981989
-4.447534435361109
-3.613415051791471
-3.6027036735118805
-3.584988220264803
-3.468787299297072
-3.509830119329391
-3.514236350798361
-3.8948104954224845
-4.129880940395717
-4.039606955836532
-3.4402496438585195
-3.6395964542885935
-3.7049136110711043
-3.8712789410649786
-3.9457093171054023
-3.431115728062529
-3.3877666474359254
-4.208134640162944
-4.19440832233911
-3.364539046418462
-3.4951242995736616
-3.482444793703816
-3.30325404402709
-3.640646285911198
-3.475279419523868
-3.49250469944362
-3.967570379358528
-3.832174771619633
-3.7512815650685645
-3.5949523159857475
-3.5026627190503556
-3.5783608059317213
-3.434159073390923
-3.927210414739141
-3.7538557731410975
-3.4666265677087784
-3.416062933700432
-3.335822964307582
-3.3024085513272734
-3.4416217724784057
-3.7004939794324416
-3.6763351791564776
-3.2374842222870277
-3.290880507758572
-3.4616995579651326
-3.3813843159126504
-3.3527209458294673
-3.3218446585485424
-3.295033265703992
-3.2551816602016164
-3.344512294870364
-3.4993834985942622
-3.746708438427249
-3.225179719773136
-3.4383303945716794
-3.574956950449845
-3.5766759435066287
-3.555806223401594
-3.472045614500724
-3.4451975295097705
-3.424201189632959
-3.417379754226587
-3.4456083558145103
-3.525067971783067
-3.482248428561794
-3.453269790748986
-3.438537571685859
-3.3624092832439127
-3.5327074265312954
-3.4802452983424077
-3.4789669033712536
-3.341284294037976
-3.504584266264631
-3.4165668203612904
-3.435172927877823
-3.2613023039783777
-3.4038185201312814
-3.3189972497751365
-3.230728598152388
-3.1934333615481836
-3.2077883392308983
-3.196857500373199
-3.2789836733746647
-3.4437380097570363
-3.2611326481631213
-3.3991275694188277
-3.4356289234231103
-3.3727712521726114
-3.3369241673085237
-3.3776550707934447
-3.4410381763302516
-3.391952550202613
-3.4722286909748314
-3.54248265251455
-3.5434639404267316
-3.2874276371617577
-3.6381247855632872
-3.6235854933569036
-3.6200208120181308
-3.614825122736931
-3.5619008938221195
-3.7826307238742265
-3.744097311001219
-3.171352848774266
-3.7336229455376837
-3.5305799038663443
-3.3117324195391125
-3.458996061219888
-3.4267314772481665
-3.6920868871243475
-3.404413329427144
-3.2020816359575317
-3.210768419726995
-3.2342688149378334
-3.326038998898015
-3.2889377629501313
-3.334642130884318
-3.3974023262843116
-3.453126277136962
-3.6085926133836783
-3.6052075205369873
-3.6037261905719515
-3.788912528612371
-3.7178808923436417
-3.8587952631018303
-3.8609005537317866
-3.866195235133129
-3.2180021611184904
-3.974506082371818
-3.948980443834885
-3.9479408297499385
-3.913773039737684
-4.026613391979434
-4.180005058830256
-4.133501114232866
-3.2665161169813226
-3.955122645579935
-3.625362515314705
-3.411933496320052
-3.588196722681288
-3.605479918603805
-3.8473306009046477
-4.113194388707017
-4.237151740351669
-3.402509574563975
-3.27236002230738
-3.3430853904715274
-3.506796510664848
-3.482310987163698
-3.731707473474063
-3.898938041094136
-3.958349813587167
-4.177538325914125
-4.290511114117723
-4.162785512336426
-3.4234766361939752
-4.411575435362602
-4.147227375086032
-4.394105790846361
-4.380728022490953
-4.3633133550324015
-4.617477941029096
-4.651830985230625
-4.637263317048244
-4.608693298802148
-3.5525212648761832
-4.080656067014558
-3.9337959657152304
-3.7538173355810067
-3.7536171449569813
-4.020414810492086
-4.297613942380332
-4.671531596513336
-4.596433328093837
-3.6172083018076937
-3.661677432487008
-3.756426446292929
-3.8883093626497436
-4.40172272077045
-4.147680397023797
-4.126542626288368
-4.158244898697898
-4.6545434598233095
-4.398499370265809
-4.426910573144867
-3.8008808677955015
-4.907632144391315
-4.873987011409525
-5.023381536578151
-4.895704905029012
-4.857130513907611
-4.883203765919569
-5.164352380661229
-5.160737809088093
-3.978521659759681
-4.046236294306229
-4.106519003260951
-4.345133664915604
-4.223566780695078
-4.766624338402209
-4.5046831665845355
-4.827207558879516
-5.01878387794646
-4.972307081324668
-5.1411030938310835
-5.239926254377978
-4.068386946748435
-5.188971682909964
-4.350761715685436
-4.321610187263625
-4.439039843291583
-4.8856479657625265
-4.627152562755482
-4.634881637756282
-4.9072034855976625
-4.26939395023691
-5.231606042256858
-5.447088307033397
-5.245246310507677
-5.333476721194334
-5.431371030121818
-5.283720062365806
-5.434448355252527
-5.706180392749787
-5.707149883320141
-4.355529804271887
-4.622241453413209
-4.515449706837438
-4.7243030117631255
-4.793014084476105
-5.123952409618503
-5.207858661427035
-5.699151709956964
-5.423572170839164
-5.221466395321571
-5.6154182565114725
-5.650346857203245
-4.57935750808131
-5.733347047218034
-5.47682879723746
-4.867817782177306
-4.999927626635368
-5.595905194188806
-5.169532013536668
-5.2429630640321525
-4.826805493379597
-5.971427885751468
-5.57880824353232
-5.640386239717615
-5.964464534319497
-5.693724985281976
-5.899212794776701
-5.947292601718794
-6.021917471141332
-6.026968996127722
-6.199889116765838
-6.249852038300954
-6.199329052131396
-6.40035325572594
-5.681618961158467
-5.9222515509097065
-5.1130137116054994
-5.303798856637169
-5.430637451716927
-5.70824812149334
-5.728710072967531
-6.199704784707463
-5.981131169550779
-5.925420993924009
-6.221169770425462
-5.145428334276622
-5.374259431728674
-6.220685294963929
-6.004055936100748
-5.753591944926108
-5.459864558214066
-5.681003704145412
-6.310249886875223
-5.43169629949307
-6.412577071765433
-6.248641600055959
-6.40750815967356
-6.323571667913731
-6.574837584869883
-6.453257223904101
-6.582062429870944
-6.709425142106033
-6.58357429070702
-6.752847494750064
-6.1422284300915715
-5.701188971030333
-5.803144555429714
-5.98463887924479
-6.191076869023419
-6.255937045213093
-6.64661538876392
-6.496737529683864
-6.403876101798375
-6.614010707422461
-6.654177315496568
-5.7512834598502875
-5.606933966352361
-6.446624056819857
-6.25491658991254
-6.041151066651416
-5.959836687317381
-6.0341086939870054
-6.613402719284037
-6.348263403863328
-5.994982532263087
-6.721785850147428
-6.737049618293487
-6.812995212278699
-6.857720603831155
-6.846087686922986
-6.792132128832671
-6.820536285040464
-6.915065691397453
-6.8909591108861905
-6.926237714143398
-6.94367787960982
-6.6284813384033505
-6.48363257724849
-6.246277723799678
-6.204930744570785
-6.500089915864567
-6.417560035168438
-6.561998169311379
-6.7272241624086595
-6.721869258777047
-6.867844520125031
-6.856179773369018
-6.765768303531195
-6.800717551369123
-6.822931718805662
-6.862695711559838
-6.929000594876356
-6.901297244877212
-6.916493622833405
-6.898392461779805
-6.863827690006657
-6.8783083329043
-6.912475319278753
-6.91349390436636
-6.2928864984331625
-6.65390065892771
-6.503946608778203
-6.405964408395115
-6.473430536282268
-6.936355365220325
-6.920147372064888
-6.944177459830496
-6.886737209386193
-6.748294318178167
-6.515765597928974
-6.6838257487393955
-6.8665087422884215
-7.0154679187017965
-6.952887666964483
-7.009098102657402
-6.968882895208651
-7.038505021738318
-6.774377272075875
-6.908537728183988
-6.887913259141301
-6.718340189955099
-6.8890991825692875
-7.037994713828757
-7.0865463759932785
-6.904337962735032
-6.93663789442652
-6.99656788719028
-6.732684163270151
-6.853434378460354
-6.975189659187982
-6.999807487812654
-7.037039782854019
-6.937056416894873
-6.899892790481503
-6.986961850887206
-7.0956656910413605
-6.965393660010816
-7.020473636971682
-7.0898831850578
-7.032916221806589
-7.13152176969794
-7.048404843846597
-7.037041179882738
-7.098654165306419
-7.121561179694989
-7.0919023772749075
-7.0897493935944835
-7.102021394087885
-7.159120208424968
-7.135603864734009
-7.06913154737854
-7.116423943820335
-6.967910221523537
-6.981202266706888
-6.956319211754733
-7.004064430018674
-6.980937461728032
-6.951713196519431
-6.8665258833066884
-6.978935614811799
-6.893225979281339
-7.0102032376999555
-6.975254150127008
-6.784888375935899
-6.838765164758907
-7.005617560127862
-7.0443960960617975
-6.945655283275673
-6.926852597882035
-6.733625130288364
-6.833783959954596
-6.832375166799436
-6.912776541624649
-6.543636250463805
-6.5587437499254415
-6.683859090981979
-6.332213455861079
-6.541073543329818
-6.161285250822103
-6.705485414619804
-6.602809363572307
-6.237656354441622
-6.787574868459628
-6.590287222487591
-6.302492682500682
-6.036589880840938
-6.3263047903389795
-6.0115489140101905
-6.05661098429428
-6.43181291298428
-6.003801795485045
-5.661614752795189
-5.697189960332125
-6.404522642861138
-6.134929842489128
-6.0169316710521334
-6.091703854309443
-5.689929982308415
-5.688432418332907
-5.856782555768957
-5.7391794457916365
-5.283469068692353
-5.099118711742275
-5.315517859434697
-5.155119451183554
-6.096600058903675
-5.753594333128094
-5.798230800930811
-5.798025924202815
-5.0782185977361385
-5.34262583769274
-5.285728045456264
-5.380213804316302
-4.876495863803641
-4.88001867540298
-4.917367123900585
-4.495740030960262
-4.51052736297702
-4.966025917057606
-4.461871326503738
-4.658388377515293
-4.666793163537984
-4.910367674831135
-4.759462610616468
-4.510437892243105
-4.432328199471228
-4.307450085645484
-4.116724874709046
-4.213894839323468
-4.603451201457229
-4.359357669130854
-4.145236249088749
-4.02760829572205
-3.865302886334306
-3.795066043704963
-3.656088409451166
-3.9705704660905505
-3.7124128246566768
-3.8342337092891943
-3.677205038041536
-3.7073915997754714
-3.4665444379311854
-3.3372606585988636
-3.467871450010464
-3.508077638251142
-3.350190750043439
-3.5357140692728617
-3.411647620133514
-3.2812804624711287
-3.291698401001524
-3.328290845810599
-3.365326609724637
-3.4520263330758696
-3.411255044988414
-3.4278812411331447
-3.3908426067550854
-3.3656696716690577
-3.348197346716702
-3.3939015502014818
-3.2680132270863322
-3.373042425938281
-3.4022218132418796
-3.5173434233715564
-3.549760877467874
-3.4398747171579243
-3.3294729160225596
-3.3292560866443224
-3.268885158096048
-3.4494280551446788
-3.513770946884189
-3.2992311491397435
-3.3881808137349245
-3.7199629687197002
-3.694708445763952
-3.7393296132993603
-3.839661309900399
-3.9347401654712573
-3.9072385797901745
-3.6457737330515987
-3.7325245758388377
-3.7952508568658736
-3.593856630880395
-3.431058164420742
-3.6684569329420786
-3.9059100700012404
-3.9265666637007373
-4.156650054229373
-4.125111354012506
-4.353833387503025
-3.7673845653721254
-4.5494984361173305
-4.114990761926706
-3.8778062161113427
-4.520623353522548
-4.562432547759001
-4.34053628179527
-4.581226864315806
-4.392696362238624
-4.858798107268071
-4.215226144219527
-4.564624985848188
-4.847334469377884
-4.743494235715598
-4.629556470743564
-4.699614237635486
-4.847946882876414
-5.210676406093503
-5.330165851441425
-5.164831917910276
-5.123790670391754
-5.062714830310141
-5.578448718775217
-5.14017043346652
-5.529235889878435
-5.554586472586126
-5.446819951669884
-5.59446049343266
-5.081085063735599
-5.842168683802298
-5.844235743217421
-5.980684048627506
-5.453437758839076
-6.117764167421663
-6.065953710548595
-5.870112438690615
-5.596385367592319
-5.863247134932577
-6.0795017337171
-6.193995553429456
-6.15122282535695
-6.3234331067547345
-6.199143409018659
-6.220299394968364
-6.544215922920873
-6.464577075500952
-6.154116331744956
-6.52049222793491
-6.72653058453513
-6.584425267980503
-6.731051473593812
-6.511513228621599
-6.456695851949028
-6.741137050568416
-6.735005777170501
-6.667452622462096
-6.688353941302952
-6.778306038345904
-6.8716213024490385
-6.6216089231238
-6.833167261362347
-6.820976052018162
-6.876783209251216
-6.950985269747323
-6.90364084430749
-6.818770297872743
-6.870392833807446
-6.828054263001786
-6.910047419993268
-6.934220442484366
-6.95569726241118
-6.9564725574936705
-6.938606777603384
-7.024797556700475
-7.003605709571759
-6.983619842721613
-6.971191183406906
-7.027906578392133
-7.0530529470089744
-7.058475804598167
</DataArray>
<DataArray type="Float64" Name="f" Format="ascii">
5.189677907023441
5.342091750305799
4.785559092877398
5.663721007557193
5.661112933222504
5.018821729160515
6.35558282963755
5.887914388616484
5.443009224715326
4.912272276633833
5.26847995400074
4.395395957727656
5.3698011118460975
4.001474951009486
4.573318289184555
4.347158711495087
3.4682382143847574
4.244230357007658
4.757806600945077
5.042655905966139
3.7160569198599167
3.931967278652351
4.9468904936127
5.527509068633548
5.35145995877162
6.237309943009649
3.6598249859404275
4.430047351492989
5.543047534671615
5.056032121098468
4.958774735926836
5.904620594766291
5.460887289268414
5.423480978027782
5.058267478063035
5.3867003704643395
5.6446444931576485
5.394441392836646
5.121430727386737
5.2985013401059655
4.563136588488745
6.700625164415455
6.026406295775645
5.1445823036681055
4.495833116613881
4.2050633110085025
6.349497089345764
5.365476257110872
4.422546205407076
4.797856540493605
4.346936996625303
5.824258730374371
5.135482387744781
6.869495444523731
4.721386067181371
6.133795540917164
5.624406156074187
4.8277459218376055
4.789585934336984
5.076178637169292
4.987981428508214
4.662061069379191
5.8691741706198775
6.752383369238774
5.916978184915579
4.795408781214412
6.488395259071852
6.171277196848272
5.971853575461564
5.497784833366581
5.18944673239396
4.467073217763911
6.068812218745012
5.849335368014022
5.8706116423242465
5.5128452434035795
6.200639654108878
5.404992876100707
6.669170184186173
5.790061109768886
5.564299422651579
5.286323344420311
5.5678685620005925
4.637603953558843
5.996726322644919
5.09311181443274
6.111145500734607
4.8947921730962145
5.788426566324092
5.18541224849183
5.482575763667729
5.626670190400125
5.381839912940134
5.177192674313345
4.574766695538845
4.390443360569787
5.233679027645094
4.4573954304646
5.729890588905016
5.055135005119482
5.2213683945970795
4.701834717155912
5.445288015655227
3.918524380178491
5.967199430638746
3.7670959382730937
4.862208982669649
5.9789099264086305
4.485170127122481
5.2242501904533905
4.932990163529724
5.762492589360597
5.244532482075684
5.303424686080927
5.245766951844745
6.518331229673867
4.677082508932321
4.741926016881821
5.251275274638446
4.490930505052427
5.4725178660361005
4.276842827834719
5.271824972417036
4.878414928679647
4.8690345027854125
6.35381110204197
4.947702539591388
4.397341839243722
4.526121084298022
3.9747468199388387
5.412069983997605
4.915784094229795
5.662710252674835
4.791932207942126
6.279357231652685
5.516499058967687
4.630083695544613
4.2845842356004695
3.7909901358809743
5.8099976334642625
5.975889765579549
4.834154222711436
4.131977926596982
6.105684436125586
5.556470107288515
6.7155155904751265
5.739259903025354
4.958416928157279
5.8510908836216915
4.051431773450096
5.136560105711964
6.561228309026502
4.876460327546322
4.826562094883894
5.516571124006796
4.871413482328207
5.002800838490672
4.792539214702757
4.713749601672576
5.153147022620326
5.293886974820821
4.824288338503261
4.814579427764244
4.880628769679559
5.58897798415572
4.227853195209165
5.102722475261294
5.659747333957359
4.412246307408302
4.756156518343033
4.937475995640144
4.270885207426746
5.431968208294278
5.597131397241795
4.959043584465399
4.911913271854231
5.436401945491253
5.345585575558889
5.313042813778974
5.32624150674422
5.173616574501219
6.118184331359984
5.195605008961848
4.465725482085801
5.693855687677176
4.10893325442717
5.7305509132280426
5.3620671112470015
3.8655598961921642
4.0805950609874015
5.465251401444852
5.000533354637085
5.812378024919871
5.262868385291314
4.922103290576628
5.835912321617694
5.5513546076688
5.097356340244915
4.5819243200771576
4.4486057389042335
5.1937429582224635
6.560106459904889
6.02604022293307
6.6590506813488135
3.990516488977929
5.62720295763203
5.336957461844218
5.506012411466875
4.730919264651447
5.297495361150722
4.562774932556117
4.268523631185503
5.441470520063931
4.084660558058994
3.4282718119471127
5.514367686301853
5.515309479445874
6.466283475023109
5.749068349572752
4.5537992889173955
3.690913291094962
4.104859053680608
5.417363608706187
4.805770615168918
6.334055283278588
5.476984073304607
5.334800016852956
5.875675884943881
5.381637407854765
5.537252671861723
4.133901139049019
4.783495481866857
5.285903220151171
5.000372007748385
6.2475111086831925
4.480738812136578
4.628453295364678
6.167642093448159
4.419826321504877
5.859785007057467
5.993350028036503
5.297900094825982
6.01045191434271
5.025640986862214
4.904772286727222
3.710158916238312
3.9367540801293277
4.443975239653677
4.532420853301978
4.430043887032656
6.112679500617515
5.005412735555693
5.67363312368633
5.989674377375025
5.419684796332305
5.74917320596777
4.3845142475479
5.080394328355978
6.541213406870489
5.950656970143968
5.415601653783596
4.2238757434702885
5.457521593403174
4.470608118394012
5.29496114874187
4.909371694462927
4.994767934937291
4.845367859574977
4.75969019615135
6.154312816396887
6.061264468342334
4.968535224422239
3.4985095230379653
5.255600173323595
6.009384693573279
4.334178932570292
6.361172456945382
6.288505871314758
3.2702961013848726
3.0496220638891667
5.588853652792182
3.363931691199609
5.471230171029859
5.5609122311371415
5.784018332265659
3.8147310049672587
4.012795461185961
4.88710106350191
4.203938398853025
4.429689376664011
5.72900776188773
5.198486637966696
6.32817181917937
4.46742857508754
4.2312001310470455
4.816194582930397
5.122092550437956
5.97258826841175
5.422714053551318
6.11115576493572
6.422043393448164
6.2682749017269295
4.5118479775986255
5.260420511960506
4.916500426544813
5.340429624985635
4.4909878365482765
5.450850356652581
4.68002547417639
5.025681155834456
5.54935478860035
4.147220220634891
5.152198672701872
5.011167270506094
6.204129736940807
5.069816678621549
4.19533796292796
5.384471694507384
4.047396398178045
4.187643190303181
4.772254663122104
5.380234194719506
4.814672552786942
3.750462988887472
5.0750340971477925
4.7083573545465764
4.457499195541625
4.19711423059668
5.367692308839609
5.198239171376579
5.120032223553536
5.049864626865119
4.877801334122255
5.25089980859069
5.957294425586096
5.162151551192081
4.288731915011037
4.4148922098193575
4.96225235291563
4.8655601434992795
4.06898157042098
4.5467457573583925
4.784573490487614
5.273394249543748
4.8687493942177795
5.105919888778356
4.744241093729873
3.531883684559539
4.36973673694152
4.581471138487628
5.784625069265851
5.963658323424142
5.003945764677751
5.149473101904779
5.52906556343232
5.323764494255611
5.625363806034806
6.727385224680488
4.839556721278139
6.280456316719064
4.757566359688186
5.155359653427324
6.597752402383133
4.9522401029202054
4.851547004636491
5.463695160262523
5.69559491007708
5.3978379543857935
4.148411919733088
4.30565177081509
5.075124624680731
5.4513934866026394
5.725563057960849
6.088479700008972
5.658658018491163
5.831947101931323
4.558415818078245
5.335624839843361
4.126553910299378
4.918357150487922
3.981840565610455
5.949430144685963
4.942628562009447
5.286881639385887
5.318559990330424
5.084494259115089
5.465377194168066
4.638895643808363
6.467578160738839
5.614759307502433
3.9216083943512583
5.447163391489879
4.506396662138742
4.558832097291285
4.646881812843089
4.489082385144585
5.121726569490087
4.572073240462003
5.203566538781817
6.232121768263197
5.226257496431318
5.828574467736753
4.493642788748166
5.597017102173016
4.727709854840922
4.458216569754358
5.385186116511247
4.153660956031505
4.321203302574035
5.0803158589598665
4.904430344000395
4.820478433763422
4.881223012399567
5.14433760539194
5.408481105988989
4.094819958091179
4.826441204457153
3.8091499039012864
4.417568394600736
5.9804545477090985
4.036886886189264
5.0891370291759195
6.048913620368174
5.433951941041274
4.900164472594665
5.194724676754609
4.548354651204575
5.9931769758676525
4.462752876901103
3.858937080038536
4.575749495234761
4.57044305600641
4.756018919335826
4.837418582833907
5.226471453671095
4.060893910013477
4.6091045647578435
5.126357136793282
4.195477502757104
4.8378288806303855
5.765101099309999
4.831686281962977
5.866853952380361
5.426439894410661
4.878128402422264
5.039503925287673
5.825127078003862
5.14116056075214
5.421603867685357
4.616349039115829
5.953950789658508
5.88323295317024
5.626915819218311
5.852392089683302
6.367451183350746
5.370767937880169
6.22764945327448
5.557786050273617
5.734041830426625
5.205064592919923
4.735997506899432
5.1808921557091745
4.4828021534414395
5.147888489741409
4.420443820488814
4.954893675050627
5.15132043183415
4.310196544455616
5.509045121078792
5.177030303594563
4.793253213936723
6.265076226292307
5.2336132905961215
5.5549357396492915
6.029095041882058
4.26883791375774
4.93196666851138
5.767966729947945
4.733784153757575
5.581012841619863
5.095594925224081
4.609945270860785
5.811421576017022
5.6249443944210205
4.736427771085524
5.105834017300542
5.753620471696941
5.758101473061493
5.051132462954642
4.811782772378748
4.817288541260166
4.557684656885697
5.147534553082417
3.8105866475437
5.602976481585466
5.41683516999582
4.423132513662977
6.22195363275689
5.300108900293111
5.697666451377558
5.416234914741473
5.004713534163797
5.23759093716825
4.928150001920435
5.50348239637864
4.690720925307137
6.258316520767302
6.143152065135571
4.951123868284612
4.462170661831395
6.420733401113197
4.639880037075934
5.130071083815268
3.9408504503541
5.462049683402397
5.464588465466952
5.124436050965746
4.4109936137353785
6.163089216514906
4.700393797239526
6.201879711785522
5.888827135885564
5.463320051205887
5.026235765049932
5.445432009079632
5.022847211080876
5.283563459627175
5.0148045625978765
4.639347834235346
5.260955863849035
5.2563633372494545
5.760760049889965
5.235715721421223
5.135536924126533
5.513267726545184
6.589431282515974
5.882972161919441
5.2617186285232815
5.57884292854534
6.607317453527107
6.0274249169301575
5.0670326958938166
5.513340175336161
4.1667448005744925
6.1033227103974275
6.173087338559684
5.719250852698438
5.745190573883662
5.770745149000562
4.027016014407166
4.6820543439053335
5.178341310280476
4.47077596258707
5.398220839877169
4.946939156542917
5.261071429041805
5.109009723749201
6.0937124110615875
4.337104340399336
5.243900026028457
4.7571437350755055
4.973747189113713
4.862978296803191
6.441405511241181
5.26661310816071
5.483598482211392
5.867138006502721
6.0980923653360275
6.270402169434414
5.594409210461193
5.479015044978009
4.01611307810272
5.890753433613626
3.7803548008801116
5.068780800567617
4.688218976932926
4.716477193160218
6.94063760858334
5.382292642344069
6.336424202233233
5.147678360728146
4.575253924553592
5.418234420380002
4.013577338757655
4.426025955324104
6.405408652599416
5.470966336794339
5.483431960641211
5.14284322397478
5.228022862776029
5.439595902313143
6.115016084722016
4.61854745623638
5.079329862361711
5.7085917856629615
5.859367090130262
4.5989860054006755
5.355257517319019
5.633763315738594
5.146930697163534
5.911999369968954
4.742241876998519
4.820418163059396
5.225074206600751
5.645740840347814
5.415069120870555
5.043370441885174
5.402657700152688
6.170879958881636
5.249541223133672
5.696212259472586
5.498953382756469
5.888803484809359
4.2069809198241375
5.16339804902512
4.030211157226893
5.53193627545889
5.012623858653895
6.429415160918354
6.381013326240543
5.5337696900641475
4.788836671906445
5.137209893072113
5.253983152770776
5.143944019237338
4.854088681628953
5.3454084278174125
5.464212615535694
4.59802133627855
5.166767167426385
5.5512364577929425
4.5678076438535795
5.96761514519392
5.567497829099097
4.6019278349439015
5.289227967714312
5.5670251061714575
5.077227265391776
5.281510071088632
5.556558782766378
4.125598468613728
5.644016623262318
5.049049053134521
4.993872786109099
5.0475129944999955
5.730519577067876
4.767565848885058
3.636001285525613
5.0213078722381335
5.670618554735213
5.402454822105477
5.088834902534116
5.428922898948665
5.7326636399086235
5.645038519877929
5.919450651923513
4.851509473807341
5.003661161754338
4.88003749986592
7.098990189915866
5.822203408700106
7.42685595535292
5.914001876504837
6.633703197368508
5.728785416580056
5.249348242757648
6.830276672308539
6.233608154789263
6.92851863986933
5.200983146681378
6.5153281572653405
6.771676172504369
6.883885336666669
6.220690577901395
5.684007486952537
5.401912507060886
5.1240717561974085
5.41266560801353
4.592183386022769
5.930798923096629
4.990822550386387
4.696366567753587
4.383757659056996
5.920081915954751
4.859927946538226
5.493207968303246
4.706263014630654
4.792408462297228
4.1665452212217255
5.192824297691458
4.6621156317540215
4.9317842718772615
5.890471480135441
4.516601930196685
6.625191231978305
5.581599845723717
5.526100569386882
3.9365886713242118
4.608876256872721
3.4761378702229275
4.784966523237837
5.088250586212244
4.3451501436473965
5.343604186478104
5.89751792069353
5.479801616438592
4.014246440721761
3.6655842450924316
5.964462407196167
4.594366026378533
4.566172451872071
3.7666539963407204
5.380977873768277
5.638947929540995
5.5379738716428895
5.712083734682011
6.308315744869869
5.058175184809614
5.531286707210672
6.47641095249757
6.676951592439662
5.9676555799667765
5.4876614568375
5.788895373824118