<?xml version="1.0" encoding="UTF-8"?>
<VTKFile type="UnstructuredGrid" version="0.1" byte_order="LittleEndian">
<UnstructuredGrid>
<Piece NumberOfPoints="672" NumberOfCells="2649">
<PointData>
<DataArray type="Float64" Name="u" Format="ascii">
1.1350515855283712
1.14338694689004
0.8033392172399026
1.2260353509450825
1.327002804923424
1.20742609249443
0.9055512288991083
0.9157807714851438
0.8252609994671585
0.8283658859912961
1.1195443987231124
0.5286870443788824
1.0996863802418335
0.2034223278362304
0.05939545543620969
0.8066713941912517
1.047661602432459
0.9207165708485616
0.8497827483101387
0.5601433485212278
0.23546932777244692
0.7234989524334586
0.3839816565896244
-0.05802761292157709
-0.4487077385739963
1.3148088535490177
1.252772791647259
0.9905511687350347
0.8895519958252982
0.6261477721331676
1.1845476864703377
1.146097364053013
0.9278438926940401
0.9874886034966205
0.8606794177809959
0.8111406104400115
0.7909628202417154
0.29164745862642966
-0.20155723808308576
0.3494874015011176
-0.17259608471837473
0.4786031448524525
0.36059842334303477
-0.230268408129243
-0.33671312996908936
-0.19821579998098401
-0.24364080948106906
-0.12459998206900469
-0.0961417467665484
0.115969859568543
0.5866982886051487
0.7403006408452756
0.9711946124023386
0.6647952489815638
0.38499395409907883
0.10490904574798574
-0.3074456369682969
-0.5462176458092297
0.32123450870009945
0.5555329652228239
0.45317960114822137
-0.025066961519565084
-0.1752596245048138
0.25777450898427373
0.8714523670989609
0.2183886600943682
0.47409258412220734
0.6845524721668025
0.4671240284853679
0.5954461514743813
-0.12080761480258968
-0.1180857206434826
-0.10503040461249391
-0.20171286300118046
0.3997859308428486
1.2930144464342843
0.8103181275850664
0.4083431681914289
1.2731148336627884
1.3137350570258128
1.5436824210589746
1.4483562537250023
1.7397012490810986
1.618536816309793
0.9730687669286375
1.6636073532078166
1.5561508838986684
1.289348101276906
1.5799226917695692
0.6618741201244537
0.8117308876262744
-0.09275810431910686
0.013002184359322932
0.3237581352786813
0.2812070170079757
0.6522057260999253
0.1236580731226399
0.6646327799079094
0.7485951740375683
0.6187803307917983
1.4121765835116866
1.7284166576643518
1.3511549125388138
1.2654313670256732
1.224672610375251
0.3978364813331942
-0.012191196418994315
0.4517479409405028
1.0021915075977825
0.5246396137114941
-0.007873815912247612
1.1260513237631427
1.366938769000331
1.393507496755143
0.12760874096484537
0.7657573588816868
1.1828744175828412
1.1046404592456038
0.9880912987193764
0.2137750194675488
0.6954051196314611
1.4107365695237566
1.1266682086142656
1.038393650560185
0.35016370153197457
0.871656695866316
0.2129717200029204
1.6247426910112213
0.6234442537366895
0.7529603076437451
0.7171036968332328
0.04817213377448546
0.061395189902698016
0.5850023275203643
0.19186225775590593
0.5921587865030068
0.763063786834355
0.8272398796493586
-0.02880610726973034
0.2823078622020048
0.629094651335053
-0.050062043869477685
0.37246777022373484
0.1882325115134811
-0.06438644874500354
-0.02495918339139055
-0.05549740806175784
0.4478518986183015
0.49245934014864756
-0.3255763153462979
-0.034224289404761805
0.021208531633138378
-0.32296368577394147
-0.05436447858222638
-0.14396253844512533
-0.36141125652400874
-0.08685945239148095
0.016622973591336472
-0.011885244797003654
-0.09914011678824143
-0.029490146394096077
0.0012882753214936372
-0.061978962459274686
0.5968374938959006
0.2180681746396375
-0.20330284846985427
1.4748992003815655
1.4185970682135398
1.8017499360466902
0.7935441090975456
-0.22752244936713736
0.9082346048712281
0.07467316823316061
0.1494215639799866
0.3401447564243222
0.08858412102515499
0.05922014181129772
0.2786845958446217
-0.024665938909545052
-0.5677183634913218
0.22781411031250637
0.19903499777257003
0.5958029348920144
0.31785089856151655
0.8633751831325597
1.6233016679759493
1.5220915264294266
1.3386250609857877
1.3098311159412352
0.48536897883378094
0.788777873590767
0.3967922445200852
0.4552884496582552
0.8693830231705383
0.6076096018986272
1.123555824787621
0.7140232728658448
0.685726329395989
0.9839106631444239
-0.7113585462537777
1.2776860521881839
0.023887170097365736
0.1539004240265642
0.9717443693571716
-0.25776271762908426
0.6270569416568765
0.85247597016472
0.49571707782901864
0.642107142217453
-0.28582021201251
0.8505901947712274
1.2893161351379707
1.2611082595394716
-0.25055800725802607
0.893228538049293
1.112239050817261
1.2454334336888808
-0.07736199310825626
0.7592030250066165
1.1209746081905936
1.1691139678230604
1.2415735496264728
1.310976825619317
1.0194479148137747
0.283382624680148
-0.5908169819585279
1.1285940994328922
1.1454815790306188
1.2582727563232574
1.0858567870341995
1.3691825822576715
-0.3809401254867257
1.0480783182839648
1.057287827551171
0.8777697326686856
1.0822471034003147
1.1009004877429913
0.9390929151796322
0.8066216618269723
0.20876968662945639
0.9834277769956731
0.2543986713228271
0.7550705511510597
0.8089756919916918
-0.14191734413303106
-0.15650078503890857
0.514704393473033
0.6418599954385661
0.5789925793499737
0.6226729963598138
0.9303483860887252
0.426443389960612
0.17567681252450293
0.642054763370015
0.6727472390510386
0.2665250450082065
0.11260810771940959
0.05202998738567647
0.8986036180792853
0.7423407870478321
0.4883850774602508
0.1811824357213353
0.15838835192768058
0.5829589922674644
0.12750309575086877
0.2740626910046754
0.8988418407790044
1.1340117660959697
-0.18455537934767466
-0.00809049018391207
-0.00862520873707919
-0.0931094205470731
-0.06497792663397163
-0.4719183408573756
-0.3947326055179047
0.6878531370048114
0.005395199501969205
1.4015945766933349
0.9573489298375153
-0.43717399540906793
-0.32971645356448404
-0.27555512775125557
0.30193978076030425
-0.3369084181820289
-0.08325830004851896
0.28233333880771094
0.9861830816993226
0.2303113142049504
0.5094799407357453
1.0181754780210814
1.7213363308389862
1.3061669610773612
0.3977037310997647
0.4193195487010612
0.17607459996517372
-0.30465999009321704
-0.1653215295985024
-0.3532743092202816
1.3024978632694475
1.2817685654236977
0.11425485524019814
0.007640093385101695
0.5050629733874566
0.31121944342244096
0.5165370775424191
-0.0070998054369568004
0.6185546531319749
0.6325547768951746
1.0392194696483623
0.994831765818173
0.8066136733527185
0.810920406370034
0.6340840403310094
0.8504564611702979
0.9597395043845747
1.0580514874879479
1.3086249532855234
0.8086135297341579
0.7962205496980859
0.6392572118882854
0.2020087669826348
0.5596763283915931
0.36174021240673854
1.0635467525309947
1.1749578398367613
1.2568376318582035
0.18412190503735132
0.6670576360484085
0.91414247294051
0.5453119833745568
0.6583843898456008
0.6367740372820688
1.332944272505677
1.2009296802225082
1.2387342808858859
1.0596871361045854
0.7654323839763594
-0.047788063575256556
0.026880199759591085
0.0815854260252043
-0.6609951643813827
-0.16582681355576867
-0.3963231496507764
0.9320469734845579
0.13765828137747183
0.6526279535964741
1.0704225162389813
0.762638612134772
1.873997767051609
1.5406571176904067
1.4956223822166412
1.6209075335877334
1.3320956385822929
0.3435375166025512
0.49791594580313486
0.28226142426677203
0.4136255833504076
0.5801811108261318
0.6443807205165193
-0.1686872517191013
-0.0748369235555416
0.022851996350675693
-0.07141396941101025
-0.1480775693898661
0.13277046747291135
0.12274656334160915
0.08154293620939033
0.15762812441910762
0.28431452442260324
0.8531634484807872
1.4039278659109662
0.9399971015220714
1.2673053359203499
0.8576021950616345
0.5940312510163772
0.4785500221773902
-0.11688491310083791
0.06550310937785021
-0.10869371695808001
-0.3369232232465929
-0.047109024820861635
0.6820900136294875
1.0350314275140278
0.8673364964510089
0.3548037679297468
0.33931715685918235
0.6170355152209178
0.8850997952671462
0.9255025600022365
0.29750005700548676
0.15548462711621153
-0.17799316031235307
-0.21555590706941524
-0.028016367602869834
0.04092044077300543
0.40804447604758354
0.35392913829435874
0.23891506361329024
0.38899793041903763
0.4175789333138854
0.49316845538920323
0.5781133109704049
0.5183187573628886
0.21231603591824028
0.22398076673743686
0.4395972980558119
-0.013061009877463696
0.20622285018145642
-0.13917663145937323
-0.0986923738842884
0.5305870250150547
0.7785255694977363
0.40654064504312265
0.43943191404428644
0.36821220569782986
-0.42034916945867834
0.627199893277921
-0.9096890280008658
-0.10082963502387647
0.7139870212269662
0.6357954518784757
0.8111227037760375
1.1093709978431132
0.9056107989126085
0.9759574819488857
0.9047734638916899
1.120930571677778
0.7766496620940244
0.4452783010260378
-0.5698451290715336
0.46465083227895765
-0.30880030486524146
1.2457199764228692
1.1036709856678508
0.350947568191776
0.5275554451153698
-0.42333246384952167
0.8210028321306756
-0.2209490744163358
0.6605997215787259
1.3371536812874716
1.1639329014557338
1.072014989527727
0.8885318817004692
0.980006622864579
1.0246796243532437
1.05041144967483
0.8273427932708215
1.4304080861697448
0.7849201211308623
0.9981117578705445
0.5598425668096163
1.0702616045332678
0.8991254393570832
0.321679825136212
0.43324869215970874
0.4401356432752849
0.6367169312361548
0.7452459526983436
1.2315472236333656
1.73663923157234
0.9312807242208534
0.6355919309228715
0.8154798831199322
0.6148980281788533
0.5412430480074962
0.3558928020649689
0.34692091048930024
0.9327406499856721
0.6334085961175395
1.1299730462458302
1.0502710836696598
0.1458748754713224
-0.015155042034605043
0.22481814026330552
0.2662023238742376
1.0135846591845732
0.3583024100923632
0.2157478387026744
1.701759384491832
1.326926901822141
0.07918344205590634
-0.051933442695546686
0.7373294378584311
-0.03842243609673206
-0.24055053654784983
-0.05881924902123972
-0.04484999234725335
0.2292972004320895
0.39967981851089
-0.13741713017372306
-0.18826724603657558
0.9952402155942897
0.7570515469936651
-0.19477455998560614
-0.18054704511168135
0.48757806441155055
0.011351794455131568
1.1165487473531766
0.060531847410525655
0.43242267053048933
1.0424619562492163
0.29150534493225905
-0.2116681838228732
-0.15383078399588535
0.12950314032263854
-0.014486572089128586
-0.16784780740533736
0.04556624966672611
0.05459194250285383
-0.010918768859754737
0.3165426793158029
0.22706389669088256
-0.02847190761885821
0.8267590677800777
0.5370188483516767
0.5472429773577493
0.7407020252763133
1.0190846762864785
0.6804125775226451
0.1762353642245449
0.19037164646058702
-0.03318210422546019
-0.0189205028365255
-0.29018439248443817
0.4847585700226066
0.3467848055610674
0.39787943178713414
0.6396622848780761
0.8740281024215341
0.5930888741577175
0.23380614043753306
0.9639137400281412
1.058732821692738
0.8902266001828661
0.5848275112920267
-0.004485157977409365
1.2782590301309258
1.5409353892796795
1.013763163119431
-0.03551386118390697
0.6457787644706181
0.2734348791696722
-0.4796651785863243
0.18730975276658565
1.3265399603974182
1.1613533061402024
1.048425627469865
1.2994679268728395
0.9443459499110743
0.9727891741524707
0.9619332807655153
0.8944826761353043
1.2919207957495094
1.6014569809783583
1.4200624307104162
0.7032743432960786
0.1202815696197517
1.2228127388066967
0.05001798486145069
0.5728267313881366
-0.45222342954855976
0.9287761522527059
0.7136560032340817
0.3592984379003443
1.2736432189572926
1.3045555455230924
0.9885842990905963
1.0811460445213243
0.9164735175194875
0.8232525554026845
0.7738547528466494
0.882796336594879
1.0431819326974625
0.513143672587507
0.5669482646812646
0.9229078091992556
0.963946129966557
-0.251855504048108
-0.5641428467768581
-0.10977181887132156
0.2027807791242135
0.2764545120443865
0.8765418175750239
1.5699121814938055
1.264906083421119
0.8195599567802014
0.4947224213453352
0.4386540405238169
0.25625714157846274
0.555932831550406
0.03815045796050204
0.18046888648241882
0.23713794850821296
0.0939092168446937
-0.0036610098641679167
0.3764184575954244
-0.14588295236438126
0.503334525834873
-0.21218346255596168
-0.1537379303266753
0.43492496993803487
-0.218610556241092
-0.557295153146333
1.5252631889480721
1.3185867126437603
0.7690244907375348
1.9709565563074505
1.5346455590160402
0.3312688569007251
-0.059675131225264674
-0.08389612001969265
-0.02590119076207937
-0.02704962308583325
0.038277622190640244
0.00510313267177856
0.10028479131579066
1.5694942388895141
0.0692549523126371
-0.03900626517238482
-0.17398648262549957
0.730389764080488
0.08172902967366479
1.4619630814005689
0.8367123122345805
0.3723060177299212
0.9813233466557504
1.0027634555540113
0.8161357472395921
0.33160697696500735
0.6293200977206954
0.3099335947697894
-0.03734741195984401
0.6044855233934151
0.9995336915557281
1.3667177666673849
0.3046205552090829
0.6588617734489974
1.0429166328242674
0.21426152529847903
0.6545430667392932
0.23655406586864447
0.9212089169276962
0.34933997614485524
0.5262281992382968
0.4281627265119496
0.7838464673844525
0.9824837361287992
0.4176035673042302
0.5573508758187292
0.10597738309532148
0.13385439902964344
0.45866079453694836
0.6721787509901621
0.44878251216997983
0.3388952734574111
0.045773531616549734
0.4462210273575552
0.39483591433923737
0.28796716825911955
0.5888142958730955
0.845429973750811
0.5465736739554056
0.1784455446598556
0.12881325395769105
0.3923341914887659
0.7590916872998187
0.7764743513015538
0.964433707209589
0.6036002059358389
0.05139649762155884
0.3351985886836974
</DataArray>
<DataArray type="Float64" Name="f" Format="ascii">
-0.5421610206320492
-0.5023815309696696
-0.5292413091114924
-0.539788730166399
-0.47499236226354663
-0.4989041389373654
-0.4520907287385057
-0.35017911347166736
-0.6261365049494114
-0.5413386644626865
-0.5830935558629998
-0.6230999534970236
-0.38570784621610943
-0.4601775530822361
-0.5625743734936729
-0.5081757286288634
-0.3386923813989091
-0.47525837491491585
-0.63047670431056
-0.6288875611445449
-0.46909205700753576
-0.42210360115462026
-0.595977151727799
-0.5948994224272253
-0.5306108245505268
-0.47356550305214845
-0.5052786650083221
-0.4231837582093435
-0.3959136932021752
-0.5567342401289684
-0.5070736479878253
-0.506366182942701
-0.3185883648774612
-0.5171379943471922
-0.49294126304959957
-0.5306108245505268
-0.6742466274896748
-0.6131575106277333
-0.5677573940937242
-0.6488736191634655
-0.573734244400346
-0.552074667532177
-0.6247343121106789
-0.582405986032919
-0.5910988596381052
-0.4925943240234389
-0.5232544973293887
-0.4738783919404781
-0.5447745835585821
-0.6247944495613871
-0.6865097431013362
-0.5957539203986516
-0.546752175408166
-0.7057827999999998
-0.6623057682514477
-0.8131997198169534
-0.5306108245505268
-0.5306108245505265
-0.8365295049760598
-0.5306108245505268
-0.8065782375810991
-0.5306108245505264
-0.5306108245505268
-0.8448483756458984
-0.5788944440008378
-0.6595781038942655
-0.5675587725718414
-0.7057827999999998
-0.6003208248923649
-0.520704443750489
-0.6486017369442896
-0.5106270840418532
-0.5423759005799712
-0.5694283016643414
-0.48230318487819573
-0.48149002978711153
-0.48211061906858566
-0.4311900323981294
-0.6108169751289144
-0.4828010829833794
-0.6254299614411306
-0.46741532595986707
-0.3717644308035713
-0.47634337018537304
-0.6133371329761037
-0.5018414263295027
-0.44613981904545125
-0.5691905799626582
-0.5087934566906628
-0.46803525276229785
-0.6373891171118834
-0.5381041769255628
-0.550520318252884
-0.5651285168596349
-0.5471526210683509
-0.7319342669838649
-0.4971484241612477
-0.3612330905598587
-0.48647593114342264
-0.4537265539695845
-0.4439945286886405
-0.33818706137631743
-0.5007643797483848
-0.31423430704716204
-0.41766059909900827
-0.36805814150826793
-0.46172555280544536
-0.33818706137631743
-0.6060042585935053
-0.4362669818689757
-0.4795352891840375
-0.41881489813007117
-0.4184333314732141
-0.45721681429157707
-0.5138271893251921
-0.44061064701352554
-0.44188862810750396
-0.4332543674574661
-0.32373816807775274
-0.6592686319867996
-0.6855591341494051
-0.4032961544221008
-0.5844933647566602
-0.5413208583439564
-0.6860005484854913
-0.4866178776041667
-0.41746116063165145
-0.44380733801168754
-0.5282394130579013
-0.4441817193655939
-0.5033549793387518
-0.4866178776041667
-0.3939083518572535
-0.44068270282625843
-0.4884954801909603
-0.4413172846611232
-0.2169477209580964
-0.37030555900536444
-0.48849548019096034
-0.5727167545972386
-0.5234100570225104
-0.4413752887677785
-0.3754828144069828
-0.4051936363584528
-0.4493078426302616
-0.46781781865529476
-0.4271678882679803
-0.26317000000000007
-0.26317
-0.4280325121501329
-0.26317000000000007
-0.26317000000000007
-0.44200799561902004
-0.26317000000000007
-0.26317
-0.26317
-0.5044325906419792
-0.5502726440106558
-0.566199449753963
-0.5312389598485313
-0.577306182458935
-0.48504808263137233
-0.5715530158919445
-0.6281367583376741
-0.5968543549006385
-0.46521791681371866
-0.5399231019621356
-0.5566852453175971
-0.5970197495350281
-0.4256591058099692
-0.4302599309925102
-0.5345544929969752
-0.5670328480689188
-0.4369937764949654
-0.5131666968836244
-0.46066967813529475
-0.5959846590161533
-0.5949311892635789
-0.3606074974158562
-0.6645031075327256
-0.5043648333134998
-0.4567372552854405
-0.6932094191257113
-0.5461236509839064
-0.5281286270559297
-0.5554770879953937
-0.6720442250894965
-0.5092430059723324
-0.5897313461419583
-0.49837938704696155
-0.47456257847590927
-0.4691503349409333
-0.5326709782900159
-0.5559265399580956
-0.631399132052077
-0.5027804455291401
-0.4948479286554304
-0.612702960623043
-0.48289941037811257
-0.4131661988154925
-0.5439618512005034
-0.39357283599704646
-0.48705036636605137
-0.5636279568691689
-0.3811111214077039
-0.45869613820684324
-0.547243039104137
-0.44073714779841117
-0.3800883685603251
-0.521157860643603
-0.6049074909351362
-0.4129167056137152
-0.3912452695479813
-0.5788427509330287
-0.5208773735635499
-0.5528283305670675
-0.5148611520281624
-0.5104639865361412
-0.5521991519590516
-0.5459346390548386
-0.5486391276487765
-0.6496863491888424
-0.6062040299699946
-0.48216344269586087
-0.5763563901980021
-0.47541932899313005
-0.3919730592712003
-0.3814735163010797
-0.5162151946333969
-0.49018933026917355
-0.5257587783659011
-0.5913870778056478
-0.5595490698824249
-0.47111046573639576
-0.5314555876464072
-0.36168644684518375
-0.487342658105153
-0.4515213444712663
-0.5104952364903107
-0.4783845495910337
-0.4555936641496534
-0.43974711668664235
-0.604033234504184
-0.4089350365935421
-0.5566158506936051
-0.48696731187684844
-0.5445679069518813
-0.5316670560405068
-0.5052909114950578
-0.5123704490479892
-0.48115961811913627
-0.5790801393397642
-0.5845642725255435
-0.5518723573374695
-0.5506670087197741
-0.3902454331069087
-0.5309901227171403
-0.6822320117212007
-0.48881991145997716
-0.5477087015105835
-0.5909977581913766
-0.5766614178107007
-0.6045155154556829
-0.47553632617571634
-0.6931508960785618
-0.6532928511323339
-0.6220606299855547
-0.5930167372438803
-0.3836571204328171
-0.42818518963216656
-0.43869581494133897
-0.5171962530261655
-0.42621277363080795
-0.5035234868291985
-0.44754495767450886
-0.43734342479835225
-0.5086760370767283
-0.5488474565638458
-0.5541510349759691
-0.5724351261063338
-0.4747401150794942
-0.37668894340145925
-0.4998088223724209
-0.5109399779291744
-0.5060124360397138
-0.5959844088215646
-0.5270841895604387
-0.5898501740663543
-0.5454683757615102
-0.558778397966342
-0.47328471299584923
-0.7015026960884754
-0.5264425890264515
-0.5387623653752296
-0.5583772499894001
-0.4932406599050053
-0.5415498667764649
-0.4456620855054731
-0.5266478163241154
-0.4796511171443214
-0.5595807887453966
-0.49764108195890644
-0.3320347778094425
-0.3136499242324468
-0.4278453877777796
-0.5273376123852175
-0.591784950788976
-0.5305680744668853
-0.566252689492272
-0.5824197940397642
-0.6452737677615281
-0.6370184372490032
-0.7043628976191978
-0.4979834117240794
-0.61168416265424
-0.6202445132251777
-0.4904863119870767
-0.5958030341200979
-0.5120804641434412
-0.3622734966270453
-0.5476951239948934
-0.6088177595299264
-0.5734143901865226
-0.4300184618508212
-0.6298032119779421
-0.5099382543807736
-0.5695199953296726
-0.44655566260289237
-0.3953878362543182
-0.37298583024999044
-0.6003641306659477
-0.5924531347595917
-0.4586062841843899
-0.4826287069661243
-0.4830196538747661
-0.46582319828221896
-0.608083946848183
-0.5439922771323003
-0.6809536734965008
-0.6169830157800202
-0.6367214116815384
-0.5922697525542465
-0.6103735129662802
-0.5188765831491208
-0.6426135413058472
-0.5607861454629328
-0.48575288974221464
-0.543559876205558
-0.5518234208204531
-0.385518956907911
-0.4291909365388294
-0.5434680000000003
-0.5030612407346967
-0.5091458111177511
-0.48327604008948416
-0.3251466134856806
-0.4555649261641133
-0.5376200630945404
-0.4996095412275259
-0.6479696922455579
-0.44500683208217406
-0.6001709472761917
-0.6244202209821429
-0.5362029627461873
-0.531549207038594
-0.40560204514258885
-0.5133977650303
-0.47416617131770517
-0.4907026338695414
-0.595326480055582
-0.5943860831368524
-0.505849456436302
-0.5370671255442346
-0.3962928225922504
-0.38269790063108944
-0.4083644320870414
-0.7565924007032644
-0.4183379477205426
-0.5400366159077129
-0.5119099999999998
-0.759080854979898
-0.7676228937466465
-0.7411202542373349
-0.4612433471109615
-0.7718609124003535
-0.5942632589066248
-0.41735859836014705
-0.40497120727423036
-0.3965146110862291
-0.39342244486820627
-0.5908100203444194
-0.5602682534410262
-0.42631035446463295
-0.541487486668248
-0.45454835047758785
-0.48202226877265314
-0.5922479529976409
-0.5241930289234745
-0.5490513314610188
-0.5078406871437694
-0.5281907134273591
-0.5051870825984974
-0.4092090817347102
-0.5369497974788205
-0.4537183148826323
-0.4447976140220405
-0.4696522557046396
-0.5888960470504226
-0.5241668980504707
-0.5158612898909885
-0.5322291933695275
-0.5038348731277338
-0.4511098604111429
-0.5417905123390714
-0.46952994048951063
-0.562730918371565
-0.4868377512706982
-0.5213631040017195
-0.530383355084018
-0.3737032404687496
-0.5120679169984222
-0.5733807949908831
-0.4671243751809657
-0.5391613055899733
-0.5572579093737791
-0.438768674538306
-0.5990766584004955
-0.3530729854051086
-0.4527241195137097
-0.6381859536521557
-0.6031413797881363
-0.43283496624216045
-0.3803532915628775
-0.5415550865122657
-0.3933851937315009
-0.4563532911382757
-0.463864861748295
-0.5391880933488277
-0.6360424112805524
-0.44934336578512946
-0.47785535047267047
-0.5409607390952851
-0.7002068927269071
-0.6072748182502399
-0.6539278592380581
-0.6117210666415397
-0.6466349570120082
-0.5468675660640357
-0.4398259407935532
-0.5905764363199589
-0.4484810350777177
-0.540709926101787
-0.26071816165042117
-0.4935808829746999
-0.5668066865886532
-0.6021121685087111
-0.5259804000000009
-0.5312278675266209
-0.5116811478472093
-0.506572129790474
-0.3928019992348752
-0.5067810598716875
-0.4629443673734458
-0.49908750560753634
-0.5826234914385423
-0.5690403687973471
-0.5086401938330593
-0.504161234220222
-0.4074811834781126
-0.5335919224806202
-0.5506811551357683
-0.5240073877827361
-0.5290332526675324
-0.5508112918839098
-0.5981644341948257
-0.6841944130411208
-0.6792677590411244
-0.49000172266537084
-0.567370828148091
-0.4954968170940826
-0.5329986085744781
-0.4870472822858947
-0.4805041415916918
-0.5020129764188949
-0.5149691778069564
-0.6526562941716085
-0.42729432373551673
-0.42215779435500406
-0.3660865389830201
-0.4440643525193834
-0.738392826849946
-0.41688722876627426
-0.5883519456395648
-0.6390646773335432
-0.44066004480007864
-0.4912846156985674
-0.502999843837838
-0.5305590875498802
-0.5674873564786117
-0.47392025229859625
-0.4909837242120804
-0.41699231223859956
-0.5934457309712824
-0.46364005911957956
-0.47968512077614117
-0.5625216212133336
-0.4996851553102697
-0.5024374071202848
-0.5335058372459028
-0.5768736597279692
-0.6141026263995214
-0.5936202495200186
-0.4673392779345986
-0.5189209702417853
-0.5791303281391483
-0.5048670673981506
-0.6050480579475552
-0.6161205170177769
-0.6198985896150819
-0.6139023348837206
-0.5774878509157347
-0.4500817731337848
-0.4496043177201472
-0.4491309993408003
-0.4736014749972161
-0.49035928122421757
-0.5482052496975621
-0.4956814049783284
-0.5214795616111558
-0.5138669466861502
-0.48890253659406413
-0.5528767996262026
-0.5131099827368467
-0.582022093023256
-0.5528591916165072
-0.5478632013791812
-0.5296561921088058
-0.49221353071916235
-0.5598118146036335
-0.49477670492145254
-0.4798431291589172
-0.6402412112846942
-0.630795933705622
-0.7246398734884398
-0.46473262214401423
-0.5738629229674039
-0.6501687787069161
-0.46336765087172266
-0.6968145582926922
-0.6086902036918039
-0.6981006496148422
-0.597509138650085
-0.3579913973242826
-0.5607038589951064
-0.5077706215127097
-0.46539791358583493
-0.5095335002821054
-0.6260696905786248
-0.42220751815283847
-0.5351514060790219
-0.5512953748510164
-0.5979968729076252
-0.416477269221394
-0.4151066042229201
-0.41375463540849117
-0.38556260840413553
-0.533162764833352
-0.4915961539427283
-0.5736297625984913
-0.38082718214257444
-0.48888778660159254
-0.48066901744386553
-0.4868607216763506
-0.5370816852959861
-0.49123069673343517
-0.6610356850475931
-0.5776917653440793
-0.5116006452991727
-0.5306995467639517
-0.5471155038774357
-0.39906859832659164
-0.46869966017612846
-0.49555618708010296
-0.4984776299447469
-0.590933850929093
-0.7389079325044979
-0.689982998001319
-0.6733814270406047
-0.45544403725325733
-0.5291653161082869
-0.2940405635703137
-0.6179697558521832
-0.43629165376202034
-0.5757083085429429
-0.6060788488586077
-0.5776973586371231
-0.652700663617178
-0.5106356201550388
-0.6202474687962797
-0.6202701773296398
-0.48771903397362476
-0.6192283720977507
-0.5960256698664957
-0.656626662968314
-0.57701304980368
-0.5236494219238813
-0.6522963091907796
-0.4877688189662397
-0.7319639559072271
-0.4775335753495402
-0.46697436578021356
-0.5462160156212074
-0.5214115868470389
-0.4453120000125207
-0.43404071406556527
-0.4438810879827199
-0.44054429908994136
-0.619828410861885
-0.350474917724616
-0.5012081148347675
-0.47926960632362026
-0.6486284279445252
-0.5131079712945271
-0.6020805571992217
-0.48056543940717267
-0.4901555924179224
-0.6471012168056786
-0.5181062831922119
-0.6202672789654374
-0.5306108245505268
-0.75406794486816
-0.3148338499439665
-0.46331667702981266
-0.7555774325274845
-0.48774140899748436
-0.45592811753514556
-0.43963911818437
-0.4515670657178257
-0.22026811620899714
-0.3732699982606978
-0.26317000000000007
-0.5151512821826695
-0.6310748473419355
-0.6048360197513596
-0.5126774226932386
-0.5062578696094023
-0.47739563878795355
-0.4507636171948589
-0.5822469338369439
-0.5257588618252134
-0.538463642461945
-0.437050601219677
-0.5300820251853877
-0.6283046689475392
-0.4403694919227548
-0.40214664117786353
-0.673691732339318
-0.5317911926433491
-0.4669427567015749
-0.6254968613066215
-0.5151688230106101
-0.5702836816893485
-0.4646535845011818
-0.6823397792271256
-0.5687333869441603
-0.5964140066715052
-0.5031630667919648
-0.5483238389785223
-0.5487311550523031
-0.5057571402987281
-0.6684669871358383
-0.6308821361564427
</DataArray>
</PointData>
<CellData/>
<Points>
<DataArray type="Float64" NumberOfComponents="3" Format="ascii">
0.051026113098727434 0.08600177986450669 0.29999999999999993
0.04227883291249092 0.047939224310635895 0.3
0.0720391719122123 0.06935674235575601 0.2578594489271271
0.0860017798645065 0.05102611309872777 0.29999999999999993
0.1 0 0.3
0.053164023606176045 0.013943122276674463 0.3
0.0933012538660835 0.03598438587799763 0.2608244526866328
0.07167184254219708 0.0032192138312489875 0.25948857686412263
0.04638482881804534 0.037015897754092045 0.2599806508510354
0.037013369917786594 0.09289784953016453 0.2613756306428428
0 0.1 0.3
0 0.10000000000000002 0.24
0.015967628792777952 0.06205739579696616 0.3
0.0900257541414851 0.043535773695397614 0.2165491991335119
0.052540912315940456 0.08508497242761882 0.20840741109977517
-4.974679776301841E-4 0.045670612998757194 0.26416801933830164
-0.01276175732628658 0.06190746481407493 0.3
-0.051026113098727795 0.08600177986450647 0.2999999999999999
-0.03598438587799764 0.0933012538660835 0.2608244526866328
-0.03931430301398858 0.03769179248074707 0.3
-0.08600177986450669 0.05102611309872741 0.29999999999999993
-0.06935674235575601 0.07203917191221229 0.2578594489271271
-0.09289784953016453 0.0370133699177866 0.26137563064284275
-0.06243214200573856 0.012692146005555127 0.3
-0.1 0 0.3
0.08600177986450548 -0.05102611309872943 0.29999999999999993
0.058453283185157204 -0.02278808167319614 0.3
0.09289774606158197 -0.03701362960691413 0.2613753747279502
0.050042431218310555 -0.0295459582154997 0.25815270104161236
0.10000000000000002 0 0.24
0.04619450246111688 -0.04739064463759382 0.3
0.051026113098729654 -0.08600177986450536 0.3
0.06935654097514962 -0.07203936579372688 0.2578581990573389
0.02021751731938387 -0.06054059803436248 0.3
0.03598438587799806 -0.09330125386608334 0.2608186501391343
0 -0.1 0.3
0.0157403018785058 -0.06223916528955508 0.25995241852133005
0.053890359975504266 -0.011701271793405636 0.2163054020832249
0.10000000000000002 0 0.18
-0.010419645895973639 0.05958265605507741 0.2203764523416998
0 0.10000000000000002 0.18
-0.04353577369539764 0.09002575414148509 0.21654919913351192
0.022696481903450395 0.02913955796866975 0.2242037055498876
0.05489725004665383 0.018865110950033247 0.17061690892274955
0.0871018217960028 0.049125071397580364 0.1591806407171875
0.026167148076315705 0.04879282329614361 0.16802659032774095
0.04913265630104126 0.08709754350613884 0.13809616141512307
-0.011582967692963218 0.06343752975373772 0.16005389203456122
0 0.10000000000000002 0.11999999999999998
-0.04912507139758038 0.0871018217960028 0.1591806407171874
-0.03697447780442473 0.02388403693479061 0.24388370937437487
-0.047755558676214144 0.03969692768776785 0.20001665211424993
-0.08508497242761882 0.052540912315940436 0.20840741109977517
-0.10000000000000002 0 0.24
-0.037309222477960535 0.009167355227784845 0.27283092344195686
-0.09330125386608336 -0.035984385877998015 0.26082445268663423
-0.06250578181763533 -0.015810710485154103 0.3
-0.08600177986450536 -0.05102611309872964 0.29999999999999993
-0.05169513507612061 -0.03354986301692461 0.25679110081028167