<?xml version="1.0" encoding="UTF-8"?>
<VTKFile type="UnstructuredGrid" version="0.1" byte_order="LittleEndian">
<UnstructuredGrid>
<Piece NumberOfPoints="1536" NumberOfCells="6750">
<PointData>
<DataArray type="Float64" Name="f" Format="ascii">
-0.3197675117283572
-0.40839
-0.4518990384042804
-0.4150493177919689
-0.48512996341992676
-0.4947284596382157
-0.5279917887988379
-0.5742976562500001
-0.5323741110105221
-0.583963549381407
-0.6276473341599504
-0.51955372881885
-0.6468641770475541
-0.5928028
-0.4867653435344203
-0.6839259168797822
-0.47935093614383145
-0.4323257498426841
-0.41869314573704214
-0.4434549307708197
-0.5142174607253428
-0.5510190553915085
-0.3990757119239514
-0.48031122914756236
-0.542121493810585
-0.4769963403492658
-0.44981823411782423
-0.4849149123942724
-0.5706009315974382
-0.45499721557861067
-0.5061613495732525
-0.7095557625779493
-0.43700804167664403
-0.5694462378524279
-0.4696592847282497
-0.514906987787924
-0.5182964946972117
-0.5471412058276502
-0.522724789104637
-0.3887597668962117
-0.5914625124764578
-0.403423833824137
-0.47079674283184403
-0.3614333292002479
-0.4897704679415895
-0.3375008564317202
-0.3675564271137138
-0.39063707141971477
-0.45640682133031535
-0.37131894624389356
-0.37364027928716687
-0.5287317120370795
-0.412203103473276
-0.3694966558253901
-0.49494788387149663
-0.4626141115579225
-0.36047932871730737
-0.5555010566665849
-0.42308773403595795
-0.5226562196970599
-0.5537899533826708
-0.5470701363918163
-0.5029839875432922
-0.3533641427018832
-0.5330123877287195
-0.39724722113513494
-0.3526036169286142
-0.42395875517436593
-0.3912882425264728
-0.31466858055166863
-0.37642938952117094
-0.3234803967761933
-0.3998517736304325
-0.2581638923850483
-0.3130640518288904
-0.2156152060807065
-0.40035252840407176
-0.32982301003048603
-0.37322167382924326
-0.2799427738828567
-0.2800293130559339
-0.3334269578974158
-0.3481238606815962
-0.25400991589870886
-0.4149896814435963
-0.37142091446339864
-0.2517154852115359
-0.4260007517556889
-0.32616589146517866
-0.425633342050479
-0.5539247576094748
-0.5202266666666667
-0.5103906135945603
-0.5005047950534857
-0.46123431857638847
-0.3304146032648051
-0.30192925191379455
-0.3614870689764793
-0.38540014267036843
-0.41296657263897446
-0.40319918674189265
-0.33830061870880734
-0.3480117868912726
-0.2853541242203023
-0.407019866666666
-0.343888166544633
-0.28971333333333366
-0.362848906190542
-0.2972065321471468
-0.21082817094205486
-0.4606273424261205
-0.18266606471837518
-0.24872232102001815
-0.34419821612612256
-0.30461554155511994
-0.22508610701221418
-0.23438870089616173
-0.31775083533440784
-0.2712674510752808
-0.21550922309027762
-0.3000732917695012
-0.2618286957004896
-0.2739908514155811
-0.27734021400152636
-0.39269946666666566
-0.4704089894606315
-0.5146347653984195
-0.53004
-0.5730687229214457
-0.48254056718050914
-0.5554288020833332
-0.42857262630711906
-0.4234094806074158
-0.5152153502789832
-0.42134432064826116
-0.2654775257987931
-0.44338161860556397
-0.3036500882255064
-0.4056733753387933
-0.3821065547084592
-0.5111079199999999
-0.41228373867636675
-0.38702379861037456
-0.36095388714166804
-0.3837796322240116
-0.3480327328579984
-0.5483711072535647
-0.26921542633503726
-0.23452399999999998
-0.35576658649258275
-0.39199656217161655
-0.32111357781372707
-0.32133388608521546
-0.21691439879116547
-0.3663378456487106
-0.30818655701155
-0.22988588981874766
-0.2271267974455949
-0.26828389341980907
-0.2389917982712102
-0.2664973819409176
-0.29362867447916674
-0.17460269100059048
-0.3294879741363026
-0.4372201667699939
-0.37241205589707566
-0.6083487200000001
-0.685366455052697
-0.4763698979891287
-0.5527553089481299
-0.6664960571414492
-0.49570803681457026
-0.6815502002770465
-0.4472318089136882
-0.4855837542921629
-0.6247054447602132
-0.4334180847359845
-0.380557136757722
-0.4705364441926941
-0.5815415973134951
-0.428711268938823
-0.4063740450447824
-0.4178193295439891
-0.47012783323000656
-0.37539114975288784
-0.45987501251880475
-0.4395959692883735
-0.4806305090259783
-0.5707057194861137
-0.3396295637257944
-0.3121241654811077
-0.35589066689454724
-0.5225836183379508
-0.43975294639388146
-0.5076628999890084
-0.2107903094006459
-0.19718143418061562
-0.2500315584032415
-0.3404175765123998
-0.5244395696723015
-0.39264588165632913
-0.38826601054348925
-0.30297734345032096
-0.22656755535870318
-0.2196716856566262
-0.25715155989960875
-0.20427207848073078
-0.22148685258662312
-0.34198611338092905
-0.3707278898285202
-0.2502487247217394
-0.49716223119267505
-0.5305263176051244
-0.5878739953054665
-0.7083623046083901
-0.8107385108420464
-0.5117139985451856
-0.600153719776813
-0.7472915701202755
-0.35700062822897344
-0.5983076192495015
-0.7963420637778656
-0.6318472990560022
-0.7535089609998681
-0.381221903005515
-0.4106818195908249
-0.5996757631802668
-0.6749148586898116
-0.416607144335897
-0.4418555006241593
-0.45948000770629593
-0.5808542753346102
-0.5893155749767433
-0.45265928892162693
-0.48994316058462734
-0.44103544128532063
-0.47175414755114714
-0.36323754825377147
-0.36249547925186215
-0.4395251548731969
-0.5497220719652668
-0.5222477944038016
-0.6041572060772379
-0.33667563170605413
-0.18701822905754248
-0.275344066766281
-0.47199358781112905
-0.598013897003513
-0.5873071595604114
-0.2776179653562006
-0.11618518206241023
-0.14140325430179915
-0.19454822108150338
-0.4961822945568362
-0.5492282517465356
-0.40689977480658346
-0.16246719925604503
-0.17711875068892305
-0.294231183896197
-0.18104954444989343
-0.18815244611710957
-0.27524872950609763
-0.41068517543947647
-0.3009676302433146
-0.41973420670820616
-0.5839986460580652
-0.43294555012858643
-0.7018264647671604
-0.588000405579666
-0.7227258989537511
-0.5619098660311075
-0.660244
-0.8014172008184014
-0.6736891056491037
-0.8408083828124999
-0.36202594538071015
-0.29148608493490386
-0.4362169522321883
-0.7431023878636261
-0.7744909702417856
-0.7165598995082818
-0.6586945599999999
-0.504983346639221
-0.350424496208287
-0.4299113246538549
-0.6553214394111841
-0.5369956962182271
-0.5269184232172338
-0.42219418772279904
-0.45486776994258044
-0.5204792987531858
-0.6221728437944655
-0.5830488061935258
-0.48647437904287455
-0.49281938569866374
-0.47887813523584777
-0.4050124488530687
-0.3801368313546159
-0.29200125025613993
-0.41378806458591727
-0.5472593622411863
-0.5863434234593927
-0.6762549289300236
-0.3267525501616228
-0.2478270985759111
-0.20614956380692673
-0.35396088827789557
-0.6004394305986085
-0.6602656359523077
-0.29114314807092584
-0.06087639999999999
-0.18931498763992402
-0.12192803557527597
-0.3438338034304626
-0.5674282518876786
-0.3547303580999452
-0.12766620707253565
-0.22719709453619616
-0.2897975108945455
-0.11635747909975815
-0.27373713012377354
-0.36880838825433493
-0.36074189951964003
-0.21332523177083337
-0.5520734992508752
-0.5081251234230565
-0.3091879423434594
-0.6461094215798501
-0.4380168800000001
-0.5789255747055178
-0.5738458972864605
-0.6069299999999995
-0.7148858222249769
-0.4190028499125664
-0.6844141990461364
-0.6909381510416656
-0.7486304088031447
-0.5767305300681949
-0.5054969911530284
-0.2650434556417834
-0.28423702955156027
-0.34311341237949544
-0.5849575982167372
-0.7025598358240296
-0.46643159999999906
-0.6034969860152516
-0.3817300247985114
-0.5830968477483031
-0.42268844438842196
-0.3322810530945663
-0.4718711111111116
-0.5261277368200696
-0.578356580746007
-0.47192896110011323
-0.41587307485727915
-0.494512232073353
-0.5485555842116144
-0.6256478527546419
-0.5676287829171353
-0.49457648204407606
-0.5152997366898143
-0.5215420985978283
-0.435976311138691
-0.46321587082502474
-0.342894797070328
-0.44773746505175066
-0.5261141299855336
-0.5716418529117585
-0.6801264187228631
-0.2595197695248733
-0.38497782124373536
-0.26185115659274655
-0.3368091380012357
-0.5352855999999998
-0.6053368457599423
-0.2359785590531728
-0.216490000000001
-0.32273990920611345
-0.19749185188027252
-0.2940108608720822
-0.5227650981607769
-0.3689511320377284
-0.2388914873625607
-0.33687532152972355
-0.21938253503399965
-0.3054515772831557
-0.4059168494014325
-0.45772954096152324
-0.24786408560186382
-0.34150917100694533
-0.6131069686380276
-0.3569894268857341
-0.3520670882413727
-0.49915263335867294
-0.4170568000000001
-0.49773626782393027
-0.5103331562885335
-0.47956219673486333
-0.533067282264733
-0.4341414901069313
-0.41004913825170486
-0.4444622131565031
-0.43983388217344727
-0.4686463153544126
-0.4873706200135404
-0.5076809923101911
-0.5751116630490952
-0.5604747489060661
-0.548952958920469
-0.50352
-0.5322976712753426
-0.4687459129518257
-0.3989256654267416
-0.5905191072381691
-0.4520275735613862
-0.3292470030016114
-0.49411396682527037
-0.5814868297823353
-0.35588793247722444
-0.49879521865400395
-0.31997207505683045
-0.5770317941543213
-0.4238906473865622
-0.24434363850625415
-0.30094333333333306
-0.28600008175020347
-0.4957843111667764
-0.5529319315530453
-0.42909761733798923
-0.2908110632547832
-0.37676822752800926
-0.48859419499070117
-0.4893120109554084
-0.3621793506769589
-0.3341644936863204
-0.5599713333333342
-0.47233005204715267
-0.49413579631495647
-0.4250082836918587
-0.44711780989583266
-0.5982294238121816
-0.595775307164515
-0.5515753305742866
-0.4996251242586352
-0.5355214934903904
-0.6093758871527778
-0.5687370675146662
-0.5457735915070343
-0.45922894668319825
-0.5095992395677235
-0.4967192657369233
-0.5692704945236612
-0.5558211466666664
-0.5705395915120005
-0.3152278482512533
-0.4476227447601074
-0.45437195712357176
-0.38521651870075035
-0.5225587733333329
-0.52782498739409
-0.3620498963647323
-0.39438015292415723
-0.4168155691091682
-0.4100598327337661
-0.3453806819371756
-0.5093601182062406
-0.4258253555413099
-0.44524741661314415
-0.41040437338755414
-0.31666877731575654
-0.4852925376085713
-0.5383874263002543
-0.46741920886960026
-0.2613531336073897
-0.4715743338413582
-0.559197364436914
-0.2980940769214875
-0.4451655068423313
-0.3953537803372717
-0.4746811277536676
-0.45458275575579554
-0.32637586450368555
-0.45300859454815184
-0.39327770274317403
-0.315207988963791
-0.4541505571750621
-0.4884784426313767
-0.38922809160004895
-0.5402015409262036
-0.5752707620989446
-0.46647102314297234
-0.5543268180038884
-0.5926498958333334
-0.5040388243808948
-0.48854567754330264
-0.42917101983880984
-0.33511288468691885
-0.4091323706858476
-0.37157204115341075
-0.3510872483491041
-0.3217507306411305
-0.47783704412986633
-0.4577238187807104
-0.31820671222027214
-0.3319455657780534
-0.3487718903852486
-0.28868405521205
-0.4339142073830869
-0.572679206341057
-0.4002435731590086
-0.2482456340841774
-0.3922135999999999
-0.25368501950116795
-0.45204382096496926
-0.5233321784249482
-0.39683139232623793
-0.33622508303877335
-0.37017560399674226
-0.4163636114569124
-0.4289329795157324
-0.3628657966957017
-0.454024056990514
-0.6486225611352214
-0.37864334855477183
-0.4095160497827781
-0.4391371515426398
-0.5756468166666663
-0.6727623695603046
-0.6476471967421229
-0.4500960750023992
-0.4471258316181022
-0.620979431370118
-0.6536804792751062
-0.6492896198619106
-0.5901007110973343
-0.45694470965075396
-0.637197630779383
-0.5864239634088317
-0.5740677846918766
-0.565810384
-0.44095255572800246
-0.43265931375604555
-0.5280381840086162
-0.639683273636889
-0.4927938167834558
-0.503409720341668
-0.48947219516429014
-0.527560384204847
-0.43052619032858036
-0.5046720191924763
-0.6179984098044446
-0.45892879868790054
-0.4993971484346052
-0.4860501653401394
-0.6118448699814008
-0.43414519972949067
-0.4737068112170581
-0.4300242794776476
-0.602939939468108
-0.4010139232623809
-0.38951597415860223
-0.4120052847631224
-0.4259205648466689
-0.39854264860171645
-0.47255062012327004
-0.4238515019401102
-0.559985772597644
-0.49928338881545603
-0.2929380884480262
-0.34832710606568984
-0.40080946648055105
-0.4761796562172386
-0.2909272954452655
-0.42331433110704003
-0.5488505380477252
-0.5718797203564063
-0.3507461691968042
-0.5184382112210416
-0.572736845554776
-0.6238859361438314
-0.4103042399040167
-0.5088297086117676
-0.5350297494471113
-0.45597497768937273
-0.4317289883238737
-0.38688803471791694
-0.38041059351105627
-0.4556310367094673
-0.34398602828521424
-0.38210451161710896
-0.39431411097334196
-0.3341309237445747
-0.5532700420125086
-0.5579341446625611
-0.3798337922737136
-0.3946517172548069
-0.2670330287386516
-0.3279909338143226
-0.45747753051047485
-0.5214641466744999
-0.6298097272739507
-0.3728237350045546
-0.3020227910725356
-0.5383952874560867
-0.3508113866527738
-0.42554701990778354
-0.5390069159550032
-0.40758645988840675
-0.44382862795362327
-0.3335684598107416
-0.38873590242612116
-0.39794100924377473
-0.4869986634769797
-0.61217792633213
-0.6891200768065026
-0.33624713496599185
-0.3459835762623136
-0.527157259668133
-0.6747644555911285
-0.7034947400317116
-0.6682460777020048
-0.36365984882999086
-0.4558609995453598
-0.6303181975726898
-0.6460117364506016
-0.7223704976329572
-0.5438721223393259
-0.5302487671328401
-0.6430485137217906
-0.6870288173353868
-0.5496047322915464
-0.5194053180326511
-0.38968226117371124
-0.43009373576551696
-0.639723873269972
-0.6735866248972111
-0.6349072208874031
-0.49064365662326875
-0.45819660823834324
-0.4738250354580226
-0.4625145939243648
-0.6009000315285481
-0.6411005094802801
-0.6161335286629464
-0.4946736235173068
-0.5804890841039309
-0.5820880309981397
-0.4805720706485796
-0.47449130758126
-0.393694979902043
-0.5221791641449843
-0.41067491076352636
-0.5099410176860014
-0.4017466724720912
-0.39930484420490103
-0.5940022885902286
-0.5457497350664752
-0.5840371502630365
-0.6838631803678453
-0.6434485181889714
-0.40008479369015687
-0.4108770558152363
-0.4311334570991275
-0.5179617483145091
-0.4482622906046511
-0.4012192333771543
-0.43395186143199055
-0.5652965586829825
-0.5324732829752198
-0.5412496000000001
-0.38602009636200124
-0.4620382255666447
-0.5400941724819942
-0.517342584514311
-0.3433617051357914
-0.43864627599527917
-0.46465635699874525
-0.38739307839648524
-0.31644837757261807
-0.3124681855755318
-0.41227600000000025
-0.6183061850627127
-0.4884598300368572
-0.5025863841960004
-0.40437255478661105
-0.25616965201215575
-0.3463256786526139
-0.5536886990720652
-0.7056778064115927
-0.5326878203170863
-0.5806213192366415
-0.2318710638319262
-0.5034192617932688
-0.5332435252295636
-0.6072226092003814
-0.6054490694444449
-0.40287974301254786
-0.4494874797026996
-0.6654868381897082
-0.5453727038677764
-0.47428087265657287
-0.5142937602810497
-0.41548082289729327
-0.47368916034860226
-0.31638487348928146
-0.3923595733333334
-0.44589526406418106
-0.6257363883770211
-0.709182584283031
-0.6921166666666664
-0.37049213143211374
-0.3801813080719157
-0.57127313300241
-0.6811813569718373
-0.7107636430032861
-0.5671019280843144
-0.3744012602079581
-0.4448491207196757
-0.5730759909038171
-0.636344400173611
-0.6290533001111401
-0.5790340261279915
-0.542837798693888
-0.6477572753953811
-0.6375356300058038
-0.5772732880760487
-0.46783227451952897
-0.3860167860416573
-0.3629559068149579
-0.6232744589509825
-0.6328661901454512
-0.6428406310418017
-0.5761238666666667
-0.4586908781860852
-0.36195538150928824
-0.4727104320413438
-0.6137965325067719
-0.5549902930819534
-0.6376606641041533
-0.578154724116553
-0.589597631162148
-0.47602716400556727
-0.5580035594632021
-0.45191493497986085
-0.4485594435408445
-0.4360468482470405
-0.5571358397809211
-0.6256861074762786
-0.5043693029648466
-0.5571551419361978
-0.7869748796649164
-0.6510502103272663
-0.7939660490344087
-0.7474493657467701
-0.6888371849325011
-0.45758666666666686
-0.57270503055895
-0.5115376573108196
-0.5954114594159757
-0.37469422575839323
-0.3745909237445754
-0.4962708569263618
-0.4768625972706341
-0.5496793739070883
-0.5230839400660888
-0.4360326350962032
-0.45215056209960675
-0.36760454651233704
-0.48914078353158524
-0.4448960977374116
-0.3081001908107726
-0.3025150347789743
-0.39376074654257726
-0.2776382850929698
-0.21773888130921662
-0.24494666666666692
-0.39243599999999995
-0.6526095995480881
-0.6385820763303801
-0.6217603751334976
-0.5440742435742489
-0.17936904625340713
-0.4461404406710085
-0.5042240179304359
-0.7087339293981487
-0.5980470232544429
-0.6831207867662736
-0.37912142934563314
-0.5981302075109581
-0.490368266332944
-0.6144005059585318
-0.5518599281249998
-0.5367119544053013
-0.6562892271848916
-0.7125604
-0.7030682385297138
-0.5778118838261291
-0.503800832982021
-0.4708444000000001
-0.41770487690190267
-0.4122863063993932
-0.4592491840000001
-0.5182525869305438
-0.6621104952146735
-0.7081123528303054
-0.5630588888888879
-0.4650370685678859
-0.4499073632218861
-0.5283971417098172
-0.6288684416666667
-0.5541489869868618
-0.5331946212216031
-0.4336395698853757
-0.4048490032499981
-0.5490137011779291
-0.5285349594907399
-0.5116066076152522
-0.6528976516314478
-0.4205038000128188
-0.659846422217692
-0.49776138184531327
-0.5656832517048974
-0.5158577920000001
-0.39501885856219326
-0.29696674746885965
-0.4818884704715069
-0.5887881386568931
-0.5137769674667414
-0.6129984000000003
-0.5347809954122751
-0.3333878375830137
-0.41795
-0.5512595126996586
-0.49612024707038255
-0.5197908828979743
-0.6115037645519045
-0.5239904771447691
-0.4722182479844677
-0.6182926070473248
-0.47411424244312356
-0.4722045229090458
-0.49813370845499977
-0.7202897270903944
-0.6840967443553422
-0.5666678515625
-0.7697807533535758
-0.8554851979081058
-0.6599051022938625
-0.8910541149352578
-0.6616564
-0.5553297582145071
-0.4222000000000002
-0.6343113495624698
-0.5518298704667638
-0.6426387994999113
-0.42831443169827393
-0.3234312073434442
-0.5168526435213882
-0.48678820042724585
-0.46499525555285187
-0.5228680191132006
-0.43576868038850974
-0.5333338915065096
-0.2917731898185059
-0.362807108100313
-0.3915140620698841
-0.3694064926637725
-0.20743932674299267
-0.2713877702569612
-0.21312897451794918
-0.21204931844961297
-0.19308399999999998
-0.44270299876007496
-0.5642654915163164
-0.6603081378109508
-0.6045413619483905
-0.6559764215810726
-0.2989563521992983
-0.6515252875233896
-0.5475392113869565
-0.614204779513889
-0.5937012758413389
-0.5949167790742886
-0.5489404370956114
-0.5445006558442554
-0.4969332181580213
-0.5840919065922711
-0.5757948577360278
-0.6823090743912149
-0.7873187704071095
-0.5994566666666659
-0.7294681215712372
-0.6289807951868928
-0.5448532635604854
-0.5524135200000001
-0.45942831489779873
-0.5382882182269065
-0.5433872959454434
-0.521254344218132
-0.6033364761569949
-0.5387744764916184
-0.4549374305986091
-0.5410020722420016
-0.45130504043034186
-0.47408980490235625
-0.5075895069444437
-0.36527669180672095
-0.6294512937165696
-0.44000206897749755
-0.3991623884769577
-0.5374361033271335
-0.3716470778288325
-0.5203129151972571
-0.5607921405708314
-0.29612761133512
-0.565369189859314
-0.4086705859629684
-0.46831396112649243
-0.5568926133333334
-0.4161616172768087
-0.27582272015210707
-0.36546265455720484
-0.506487757174319
-0.37807274432614396
-0.5306649659571542
-0.5579541570572432
-0.3833609274026905
-0.4740275866993376
-0.45088371477028905
-0.4303256018801052
-0.55837989325895
-0.5248983872802718
-0.5078918902024099
-0.6162559191617603
-0.5001492605341545
-0.6040846841208197
-0.7857754941893552
-0.6287542940393483
-0.8964839674786442
-0.7376320146650958
-0.7775712128766895
-0.42191680064751674
-0.5837320666546814
-0.5289170572459233
-0.5727890725619816
-0.5258008131338694
-0.4327028539742247
-0.5076163876447558
-0.4881879452412827
-0.3888509710270533
-0.4422368120737394
-0.4443827234965901
-0.568858345830279
-0.3181027692537572
-0.2915597276916453
-0.2897824794463558
-0.4265928407495683
-0.2305251730294913
-0.23016143229166633
-0.2224955093310186
-0.22103795515944216
-0.1522662461252322
-0.5841299654887367
-0.5378586924285961
-0.5967077637317462
-0.5425552457113477
-0.6171855318131191
-0.5020099783809858
-0.8289606472411658
-0.6526759696952257
-0.5808255181667402
-0.5751575297071595
-0.5182713630502173
-0.6037305448611032
-0.5194172493650794
-0.5590815075676794
-0.5748077690044741
-0.6411660509534619
-0.7290392347259479
-0.7267251305366126
-0.45935376937383826
-0.6101553887035996
-0.5866403869864852
-0.5898368561397391
-0.5881653810842464
-0.5573352757191997
-0.5820306597310437
-0.5737276449018389
-0.45646731753760567
-0.528086866655796
-0.3491253584643586
-0.504889722050011
-0.5509696986182606
-0.38833426521182024
-0.4787549007712529
-0.38854395677750725
-0.36542464522399043
-0.607593646128204
-0.3946986280505043
-0.42042984762691954
-0.4975214897010461
-0.3132897525584228
-0.5190560233746792
-0.41264532509247426
-0.35138873734242543
-0.43030076271023104
-0.37140620026771226
-0.3777764405080409
-0.5231911764083493
-0.40492843639077775
-0.42274745200605496
-0.41052789935480577
-0.29625909079571655
-0.4707874174002888
-0.5201412414414964
-0.4547033378619681
-0.41483339193723284
-0.3785764580429613
-0.5598134976004144
-0.5297981225697878
-0.5260957858028964
-0.5322792018123063
-0.672972652122093
-0.6764844254598065
-0.8186606680582846
-0.484636079079699
-0.5470100738268737
-0.5006727790551052
-0.4976699280618728
-0.5302902720294854
-0.5294235239600439
-0.4917124975560429
-0.4983422989284331
-0.40403462807075274
-0.4135623371947244
-0.386009088820004
-0.5082096398962915
-0.37331797970777997
-0.35441261038302135
-0.3052336526141759
-0.35730782244866605
-0.27141868789597606
-0.3159117317708335
-0.23976303038719718
-0.1324308515333816
-0.056291194978301935
-0.7311871999999999
-0.5938010869753721
-0.5668968581026573
-0.5187953967356441
-0.5558727949851897
-0.5991511433752723
-0.8432667703382234
-0.6921839533511066
-0.6407024938214501
-0.573822513611896
-0.5292785443521387
-0.6112096066355882
-0.5680369734876541
-0.5972712280300402
-0.6305459717662818
-0.6263854614583336
-0.693033935374567
-0.5806103457152095
-0.4445170458772472
-0.47982599730292447
-0.5658464605707424
-0.553136966646001
-0.6294377582145073
-0.6108139312974548
-0.6206712188899167
-0.5180426079999999
-0.4468066243790924
-0.49598267094500353
-0.34920988834342714
-0.540618725632018
-0.5163547025418475
-0.345219892801543
-0.5144474231705373
-0.38670247778143724
-0.4540050884958351
-0.48965924817362
-0.33432326923912115
-0.45159736299527947
-0.4865251139415144
-0.3651312196019106
-0.4518845891041488
-0.46623617792932415
-0.45789672937449405
-0.3565722498287138
-0.36294163810714425
-0.5214570638561683
-0.4201930985956634
-0.3892652082727901
-0.2891844991972368
-0.4592438897430588
-0.5278129906859527
-0.3737909219371512
-0.35999841277342526
-0.5756905232202908
-0.5236413323705547
-0.46991556404215734
-0.6276164238427776
-0.5804726666666661
-0.552624310788021
-0.4990357427426031
-0.506343445204782
-0.542801485050818
-0.5005597845939946
-0.5003150353378799
-0.4831051121063871
-0.4390983431263726
-0.5099383737807964
-0.44163613333333246
-0.4374323285802851
-0.3541245776230537
-0.4145690956629238
-0.4681491481711098
-0.2972009152717495
-0.2215777907341784
-0.3850240983859979
-0.15612726526222032
-0.10763684919896722
-0.020176199999999974
-0.8114806666666668
-0.6181219237398473
-0.6112142968952833
-0.529767282656047
-0.574266836842323
-0.6460214874677267
-0.7251875922004095
-0.6984411692396719
-0.6424589791666668
-0.6495425509798879
-0.5810856255909224
-0.669488767983374
-0.646816096481561
-0.6873397214768692
-0.6292119904939036
-0.6026337621527774
-0.6490855330742665
-0.5031749088091607
-0.47739271213060547
-0.4685539348196582
-0.6117971460742614
-0.5018643372597643
-0.6256178400000003
-0.7048922875016824
-0.6518152634841916
-0.42765351999999973
-0.5184850270867436
-0.5164414833351535
-0.4684336012571257
-0.5080153478036176
-0.44068925191155167
-0.3926422652335387
-0.5491145850871747
-0.48874806087232886
-0.48464431301701927
-0.5001427237032444
-0.3650242196852758
-0.502872457492011
-0.5410090626146418
-0.427658620548018
-0.4665029950759551
-0.38366758012965435
-0.3885468789327445
-0.5814921066170698
-0.4664026578057055
-0.31947314400573906
-0.44193114895434893
-0.580496269138293
-0.35275275255218025
-0.5610203369797394
-0.48378822796720217
-0.6762933333333329
-0.548142622369827
-0.5179534925026809
-0.5199980108133554
-0.6525944554914725
-0.537670020665426
-0.5350269656265078
-0.46638329841666765
-0.43123057673603493
-0.5558164143352523
-0.6419865600000002
-0.43685237755734657
-0.3648802629946211
-0.3811265815868488
-0.553344081193411
-0.38831503340910695
-0.23845574383184218
-0.31842602424635835
-0.12160109988219969
-0.3086309674418621
-0.21697666666666784
-0.7673075106426951
-0.6320082143275395
-0.6185566761625378
-0.5906161324719824
-0.6086173409171779
-0.7754659136145431
-0.6223015126307646
-0.7083758733736579
-0.5974230280671299
-0.6727867406267299
-0.6852579926759185
-0.7502820912182265
-0.7486122179244606
-0.7189778547964454
-0.5432088344699314
-0.6558299593865159
-0.6356031659193578
-0.4672884049423039
-0.506376896744186
-0.5219326418246927
-0.6373535827440832
-0.5522554501075997
-0.508020355555555
-0.7568151791610499
-0.5491086243714262
-0.4382286605992968
-0.5721668841518247
-0.5745246443202029
-0.5559099104766397
-0.5043866666666665
-0.42078071914378246
-0.4735387777619769
-0.615130339626877
-0.5677582606904069
-0.49919683096699496
-0.43754146137028554
-0.6087745014498135
-0.562541552067616
-0.46041987847222177
-0.4157685823517249
-0.5811076408971582
-0.5514003667924577
-0.429788266666666
-0.6014452857305709
-0.5210308183508985
-0.6816965357856305
-0.5689400932221856
-0.5375997281471183
-0.5114035669698379
-0.6992973805931881
-0.7352560235585867
-0.5485727580943759
-0.5348900882633719
-0.46967954199925027
-0.4897952340849904
-0.7311412314114484
-0.46363494694507185
-0.5260190080183889
-0.4050107388547055
-0.4598855798080725
-0.4807132802705046
-0.4614370899012599
-0.26920971875
-0.33649545663091457
-0.4876661683126911
-0.4150314610456698
-0.6802323174209547
-0.6563238149177265
-0.598467613870627
-0.6348543251084169
-0.6248356451806392
-0.8745726567334865
-0.5497593872246141
-0.699262663212405
-0.6267583297590389
-0.5805795908506005
-0.730350839355239
-0.775273289013448
-0.766399153481727
-0.5597221512709224
-0.5582045848709088
-0.6879232136619463
-0.6207328079438805
-0.4733526748232624
-0.5265719999999999
-0.5896102984774972
-0.6317889250142485
-0.6207047488499171
-0.46614373832058936
-0.5913281792588885
-0.4382693858687005
-0.515400787253565
-0.6222235625938786
-0.638649192807724
-0.5777537428234857
-0.45776005478003606
-0.5956978163238132
-0.6494187306126116
-0.5692949973958334
-0.5465441167115962
-0.6481541956799753
-0.5313829423434594
-0.53191672
-0.6022034384493885
-0.5763342889026658
-0.6229260084728246
-0.6143689623484345
-0.6056062531401767
-0.5588486384356179
-0.619983557048828
-0.8594703403703401
-0.5417863253732369
-0.6188754278647192
-0.6245720803828602
-0.4964461290255055
-0.6145336743955372
-0.47650232559942857
-0.6474928385484646
-0.581331296353271
-0.37923176937383746
-0.4904722183105675
-0.6139862798725813
-0.4185763888888898
-0.5125178627511744
-0.5351355137604507
-0.4712650464972102
-0.6096331208927461
-0.6428816375103996
-0.6292398609275375
-0.6158738845787873
-0.650617967712337
-0.8232749698271666
-0.5215170381650377
-0.6632865350175711
-0.6603043195370083
-0.5559622290939649
-0.6032606017358954
-0.7302450320738184
-0.597825736121589
-0.4429754934452166
-0.6475992844131562
-0.6570624380004907
-0.6448660390419434
-0.5283059888406695
-0.6515618505137549
-0.6765532470115132
-0.6410985573195908
-0.5500845383756977
-0.38883066436180597
-0.44081128302448563
-0.5958576875387481
-0.6841187105687507
-0.6737410100106239
-0.5324226518719896
-0.6810006491132072
-0.6285309675356145
-0.6180818045456168
-0.5953549768133916
-0.5777105445717895
-0.5539302827719218
-0.6117731997915423
-0.6732738466409388
-0.6460989583494285
-0.5867134857260988
-0.7763504797703672
-0.5026566764548787
-0.6134021577459766
-0.7146846947445309
-0.6138907916141094
-0.5021399200000001
-0.45773139155416936
-0.6167617994250686
-0.6679184622390895
-0.4508623661913624
-0.4899233166502403
-0.5817235800592632
-0.5268945465526408
-0.4698726455395254
-0.5924366355260579
-0.5379575914445137
-0.5850152816537468
-0.5920339034277616
-0.6407270226214691
-0.5927591325488746
-0.6315086802231864
-0.7229670155025304
-0.5720826823723906
-0.6791676251703328
-0.6133408865503944
-0.6138071010652465
-0.4631556480182783
-0.6085091113802436
-0.3811190645758758
-0.4939983154083761
-0.6373108019883134
-0.6822520692285745
-0.7241851489878733
-0.7670746627055237
-0.6689965174674763
-0.5802728310532479
-0.3500100790749267
-0.4662452876619713
-0.6424263261684756
-0.7348046644388869
-0.5764660304382191
-0.6772759992560441
-0.5937941142488053
-0.5225468106804475
-0.5534672734740441
-0.6439418500058944
-0.6611301983001376
-0.6186645857571059
-0.6472828952262865
-0.44270759606342386
-0.5506300300842698
-0.6387551138677163
-0.6492138980786186
-0.5045454666666668
-0.38602894572105556
-0.5627763496778472
-0.5687511740597947
-0.5153308946867814
-0.4458521522087186
-0.5739255153134942
-0.4448355452484049
-0.46492943641387624
-0.5997746677980086
-0.5682198604651163
-0.6398739999999999
-0.5924031111077781
-0.564798227741324
-0.5775538381922463
-0.551301464168043
-0.6226254081406825
-0.7776867828135657
-0.587780503014642
-0.5743494811058786
-0.4430134686073206
-0.4397667592991778
-0.2998371172812898
-0.5070691382317444
-0.5651848882108278
-0.8038970677083336
-0.7474704575325483
-0.5150461800103355
-0.37484898127100413
-0.441665038748796
-0.6569704000000002
-0.5486478611283324
-0.5840533333333329
-0.5014141179982178
-0.5438775375935075
-0.5822940045111514
-0.5904298214139488
-0.5616715251084932
-0.46055542467452026
-0.4608073085998628
-0.5326317817800295
-0.5510429627768332
-0.523804517875594
-0.3800366491010539
-0.4934329128631821
-0.49895662246619915
-0.48465055753220204
-0.43715868567885974
-0.5781010815092293
-0.4253969132821651
-0.5282876774636918
-0.5730413870801029
-0.52096
-0.6896302810672282
-0.47487043551719493
-0.517173529986629
-0.48110735699123747
-0.4788156397732423
-0.6685062673611101
-0.4474947438842088
-0.4621946954745919
-0.3488986774102783
-0.36509186764823603
-0.41295914792593647
-0.5704157604877029
-0.47203039999999924
-0.3598364027131376
-0.3942247034511256