<?xml version="1.0" encoding="UTF-8"?>
<VTKFile type="UnstructuredGrid" version="0.1" byte_order="LittleEndian">
<UnstructuredGrid>
<Piece NumberOfPoints="672" NumberOfCells="2649">
<PointData>
<DataArray type="Float64" Name="u" Format="ascii">
0.9165212402615219
0.902598320063518
0.7376809976555851
0.9117506146808528
0.9315435883542597
0.8936586327435854
0.72801864446089
0.7034011952445787
0.7310287722881168
0.8407271556862294
1.024293273994956
0.7592603352045844
0.9454725461917558
0.31237231565434614
0.2839146317997571
0.8630771399496805
1.0671498644022939
1.1637400501969482
1.1600206720253614
1.0243945863619066
0.9806843401850742
1.115920807968291
0.9029253886072275
0.8310720572979453
0.6985289769504472
0.9045904830191206
0.8895011793726406
0.7032557315078672
0.6368531289659317
0.5413112450219241
0.8492234738394895
0.8188913276739853
0.6170560880901352
0.7887208820668682
0.5357309643844131
0.7506900200162148
0.5162014685162526
0.3438451247754346
0.11891883962866817
0.5396388004215821
0.16236478531169138
0.6924483707399273
0.4262920588200443
0.08420535484272974
0.003278614196648739
0.06977666869240683
0.024162161382791623
0.07548167343711222
0.12250202039146603
0.15613449995788264
0.6998767774995424
0.44226818648373495
0.5831858117876793
0.5108314539734752
0.8132949064778054
0.39353349337223115
0.6694478612983142
0.520370947840158
0.3673990764921858
0.7508131835070109
0.2880554580206268
0.5810333723388509
0.6104096483967217
0.2351075686226865
0.1488204422263966
0.306246027884761
0.31643498336986386
0.29795483786720384
0.28961872824340407
0.2485927238597573
0.1623019715350646
0.17217876882924757
0.26194558428129205
0.2161374489235952
0.5924107071355258
0.8308987140450517
0.6595217972057343
0.3273293489077226
0.7960045340947063
0.7728464180788066
0.9249983400047467
0.818842786547246
0.9424498017855549
0.8793744043826516
0.6613954757782359
0.9091618388723323
0.882421764794521
0.7969057342395781
0.837714434215344
0.46562903451593873
0.5965067623825387
0.17395426213453333
0.20338753877282736
0.39647547910801334
0.4549042806333785
0.6092253009946846
0.3218447631501896
0.3542815426882362
0.48256483798059074
0.6172702703263825
0.5292453312143823
0.451946663332869
0.2245719997270411
0.2378028992943984
0.0708389242812838
0.19501293983586884
0.2537619435984099
0.20963281903534495
0.883084121275749
0.5982565364434033
0.40053342647500945
0.8761133649642686
0.9547754378224835
0.8853780695713739
0.6704522014526317
0.8812234058149437
0.9150811820294406
0.9585097057580431
0.9174189622928033
0.5729001468949367
0.5419369779857329
0.7467625706940402
0.6930025085908984
0.4747384273802772
0.5586580272618293
0.8226848532181444
0.8413753480824986
0.5790495189688257
0.6670646644296471
0.38069670873470707
0.7294640346971134
0.641095924726807
0.9227049518357417
0.8117419905995573
0.9150432539323349
0.8971405064959167
0.8606627949285192
0.9359128782536447
0.4805528008932575
0.22111909419086737
0.23723173473417145
0.21569111728148996
0.05159149570370159
1.0003875841285441
1.0451735113985767
0.6660946728331222
0.6586924349909881
0.5930972285948453
0.8100528035293653
0.13165126228451068
-0.181593574322693
-0.02279080248236475
0.4834350825593149
0.1668862110649843
0.36156643374119357
-0.053404944405084816
0.16590116932367563
0.1991517695569089
0.17606274770910307
0.48071839569533126
0.2278444021921044
0.47289185583562177
0.1855614842088783
0.36869503926234837
0.2541972545162877
0.6511076489208066
0.457080685151207
0.4673235532559889
0.48802321900295703
0.6690665315837795
0.7493317876590062
0.3597356122687157
0.692648944844243
0.5959975398914049
0.7472311264868386
0.1961819418624352
0.21150904239186732
0.8969084675045647
0.70878747908678
0.8735654759458386
0.19263985719472465
0.18146547582099293
0.6237945517301879
0.15104992463269976
0.6855232905421947
0.18116070611639976
0.34307644421564226
0.48625250227864397
0.12438787639285738
0.6904800185556191
0.6249613470381269
0.14425805637595315
0.11326510999127272
0.5303828435048539
0.0641314149780967
1.036628105735396
0.8321344348398652
0.8607502413959954
1.1067916509194382
0.5525996120933706
1.1199255789257947
0.8909137903078952
0.893274622211072
0.885133258098964
0.15989492078670367
0.945474910816197
0.37537029757625007
0.36062372853901603
-0.5100915351220906
0.5659767050655967
0.218527922670886
0.40409576517344803
-0.12020881613890656
-0.2728143054733923
0.7524889128760323
1.0532557708154922
1.0648258498395682
0.5904632286910322
0.049444931003707414
0.783937576815433
-0.019364776724440782
0.43341809984408464
0.4547302509053911
0.613718688812305
0.6170823192514926
0.20599342968862452
1.003619275138259
0.9899970274537016
1.0081591124023708
0.7224602401782098
0.782662929706932
-0.6669761477394297
0.7138510877694184
0.985195106267408
0.7183064007165553
0.1870990657115728
0.16072666717833728
-0.7612229544917098
-0.015135039556167408
-0.18966754448012865
1.033732458458591
0.6634820228505832
1.0084535109946469
1.0083826652057988
0.4880929420564747
-0.16298518043276114
0.6464364847238901
0.7417043091730007
0.5567114907040701
0.21371751908747783
0.43035847616627143
0.4379683491783889
0.23059399988549897
0.28605937553970284
-0.15174813153993402
0.5787756977618966
0.24439167638256695
0.5611536569419179
0.6268971324156866
0.1119577142145441
0.3903893285024844
0.5530356469790771
0.40242539473254424
0.7720855787385781
0.7601204082708994
0.5029051609305418
0.78528149815896
0.7346125499017457
0.4206919684953406
0.11362901477574952
0.21781867977491837
0.17691350283779647
0.216284574265815
0.48427207067028555
0.2021621962580497
1.7003036666732678
0.9266642402901707
1.741026704305823
1.5490498223520537
0.10576215882490281
0.7050155917816353
0.9529052775260889
1.2306218877015174
0.670077202501063
0.13293154133207083
0.3842293760616809
1.019854003860946
0.02299356081447756
0.25058999066913346
0.38353202951115795
1.2040886470254841
0.22709049445168447
0.9135093739033155
0.19054158959741443
0.11488466767540122
0.3803669477783172
0.1893545975845848
0.39910823188919015
1.1530498577683286
0.6422011853487272
0.3160018363902317
0.6134097631477934
0.3252842065880613
0.5921676251506092
0.32979738917128504
0.6756618697759026
0.45781778344570156
0.44057569326498464
0.7104213514452205
0.6772951319369316
0.4173351023338121
0.363014535824703
0.057634762006359745
-0.1054305448632423
0.6443080508523112
0.007261666168599355
0.1769018967366894
-0.05244634630987523
0.7091002151078944
0.5774053368383428
-0.20123570711144068
-0.00216383929110165
0.09768642181971224
0.7719668382551311
0.8128762826979361
0.8811189334185647
0.1952422190052991
0.5795910347516812
0.7390920624091583
0.5065726615015677
0.1857260683158625
0.5337094849325376
0.9380354200452192
0.8652059819245429
0.8993606409577379
0.7480795332195668
0.5650452793069453
-0.03400989030443785
0.46225274513982184
0.3779387395419487
0.26920531728944747
0.32347335674400496
0.34793496549622466
0.7748624233390174
0.6213750944629713
0.5985221458767742
0.8456219356618204
0.701335997885643
0.6037495112967325
0.4113090091340773
0.6132993718787083
0.448713960978058
0.40281659028414035
0.062423962418024954
0.1384467741760986
0.05992186882029241
0.20827750732732414
0.2377355133928566
0.18676725014125445
0.028921923145569076
0.028387448962777482
0.18624510022722293
0.021417426983596836
0.011106093859369668
0.21961125468783396
0.03746644343319075
0.02768283048692492
0.1719328102755204
0.19452316189356098
0.27984877686812676
0.49001803105875436
0.4646176413924836
0.6160820719798937
0.6203564949304226
0.5044195273702509
0.40052090445001975
-0.028441008015288465
0.15660117502892043
-0.07801050214074436
-0.07598223044036669
0.18638038051627343
0.18566730125733488
0.27695340632249327
0.4512254387515945
0.07704309868244387
0.3224451991212468
0.5631992498321602
0.6343290630989352
0.40292192415214606
0.7043713888654677
0.7674764018841712
-0.004696305796500446
-0.0010263241939653298
0.18074964566450322
0.2027929996120757
0.5264368035154425
0.3511473829447987
0.3507889596884662
0.46568849809098817
0.503206277927242
0.5825088330391768
0.6480974666750045
0.6136535659504505
0.4453723474051382
0.33287116649385085
0.7272506104475441
0.6257597028524254
0.6825857253316794
0.7201371664906016
0.6696775016706766
0.8281430016036778
0.8870693734104442
0.8506839879941369
0.6956983632069357
0.9368029391506736
0.6804131251038691
0.7714474582280832
0.2364553708317841
0.6718073860948839
0.733417114087933
0.7387330172951433
0.8375933921901502
0.9848597405951748
0.9004167028614286
0.906702994164616
0.8665957080661529
1.0244251974862062
0.7574646271767981
0.6116006866708832
0.11612305108162106
0.4191086271725021
0.052651791037270114
1.0187148801699082
1.027705341308913
0.5366149060716365
0.3343683239599288
-0.1895250409685709
0.5594983013722394
-0.5465541237429274
-0.2765757557532515
1.0206360882597771
0.8615965815596315
0.8773208442147384
0.7009388069220197
0.8611846431580118
0.8869612579840356
0.8243457474026651
0.64755043410991
0.8863184461995963
0.31665803293664035
0.27024479177000876
-0.22208573439178245
0.3643840319617265
0.4351953952296349
-0.15611390145778872
0.016637450718706145
-0.2713513937337647
0.46822518646325395
0.43432977246561133
0.12376168749126462
0.6141911225594007
0.6573333944070245
0.47462636495588667
0.4554857167423295
0.6032800274489265
0.5003527585547363
0.45114958489395296
0.4284942075444267
0.5832932514645196
0.3443401006575763
0.8762250547318721
0.5808793962425741
0.030411919090954923
0.18646364691336628
0.32715916716165877
0.611840402874965
1.0537546175102437
0.45826391502053904
0.4005381914020746
1.656420410384232
1.3463544375773318
0.25466578499507614
0.31487208990264
0.8821236566016127
0.33469587374095505
0.2293185028322061
0.2721729677485628
0.32539620322149293
0.5156439010959606
0.6438702848093135
0.3026991725067426
0.18286308318021485
1.3483540135237673
1.3599453980065546
0.5431716457233875
0.26117945772575707
1.2161418569443645
0.6605826191211965
1.584758635318128
0.3852368027129785
0.7790551445538904
1.3492949819555737
0.5960624582448847
0.17726312559156174
0.2791652111682306
0.36764784619145735
0.30639695447236465
0.2531788991788925
0.2292826807209623
0.3089848454441398
0.22741425182319833
0.31916247945824394
0.3029172585041327
0.3170792764603167
1.0156791837505588
0.6984783758720304
0.6470686986997142
0.46850492558398527
0.6704324345734206
0.2653327257963039
0.27092898847691416
0.20137474004415692
-0.10700453064502696
-0.21965486150266278
-0.34713223759799167
0.3102456159496278
0.3333626929040498
0.3552776165940062
0.4255741104460278
0.49722196901038185
0.4612966150711303
0.17466299920342918
0.49487758863829207
0.4053352289812882
0.022195361617220393
0.4082570783899542
-0.2987111510834293
0.2497925540735562
0.27472317021300563
-0.21826722937608062
-0.6304959247509155
0.527199900286412
0.21644694140361287
-0.3987865208296352
0.20745011252843432
0.6449844836783579
0.7637604638183361
0.7168988595837789
0.9025761276913793
0.7737523417259186
0.8024602096123316
0.7209981409859801
0.6552911411879877
0.7420900796716476
0.7122366599671232
0.6803735120809038
0.04182264974656194
0.39472775287789824
0.46893098792037485
0.2104979744573207
0.6556602725922923
0.40474392768980094
0.7706692257352116
0.8183565358113725
0.8234898393865128
0.8996986420133984
0.9528851209907164
0.9388935974140163
0.9503974333501747
0.933775271515233
0.695679415478276
0.7148017474247905
0.6009302323199264
0.5836132756452147
0.24135919485331583
0.30171182299800836
0.9005206092899302
0.9114969662531126
0.7765180729235568
0.9643950979650556
0.8498147601543107
0.8779436241093169
1.1457365783650015
0.9342043190302779
0.8796598281776273
0.474151584969004
0.34789873546138755
0.12874562930394665
0.7823837041803402
0.5711389187833708
0.6141369671603308
0.29466147604558396
0.15461294446893972
0.056816240282321365
0.02124884682725262
-0.0033918663523298557
0.2755195198878581
0.6496223801551845
0.8793039316785195
0.36349473635282864
0.1974801820593761
0.6129316897357794
0.7099584095867253
0.4629266539253604
0.6579940806863817
0.40358208480062474
0.21729184542106153
0.5064633938410943
0.3848122861810036
0.06795575255579418
0.028962375511570763
0.14082660332099156
0.0038593863077871662
0.021465760004867388
0.10489686665372029
0.09344758303213697
0.03245945487958327
0.3703286866738862
-0.021303025148163072
0.016486888110093485
0.029572995690318814
0.2357846365554606
0.0011430454502749726
0.29163632697889147
0.04788381494304048
-0.15602664322775608
0.9132505565841383
0.838670434898179
0.7069924740002214
0.8338527053522216
0.46680161659674535
0.18612427894412978
0.1939210475450168
0.604964919612061
0.7345928236824533
0.7682258998740188
0.5733955694681395
0.6255603168738878
0.7967320068964897
0.20075997877003768
0.3510346891866818
0.2280748334221139
0.2749097110309621
0.1779979471221128
0.707189920900296
0.8097763314405849
0.9190335162915239
0.6919157843161219
0.4862754155530682
0.3738273232024081
0.43890290735370013
0.39442294408935213
0.31162698535050615
0.1569390896875906
0.11751513168476661
0.2501023500554658
0.03991786737301416
0.5341151539210044
0.6400186631703868
0.33797977602333024
0.8600040274459824
0.6001984704566128
0.3798523529008187
0.47465939849427347
0.5265470452913238
0.3775253690433836
0.3082062592093415
0.6692980857751126
0.693513840212585
0.8435193882566202
0.18267812033125888
0.07964038342617652
</DataArray>
<DataArray type="Float64" Name="f" Format="ascii">
-0.41999883767693
-0.5052650903327005
-0.42880099977006964
-0.4456686213891598
-0.4559732872970203
-0.5251564312364212
-0.507674988436131
-0.4601335350627044
-0.5927743900913055
-0.5092636662923437
-0.3887425133863989
-0.4871391878472222
-0.4999202090440259
-0.5904682055003232
-0.559580624406803
-0.5705583183759001
-0.46918829092167347
-0.40084265207243863
-0.4849947882675751
-0.47021625787635923
-0.46965020954328857
-0.5304078068190481
-0.6053626540529546
-0.428957983791484
-0.4020445815251084
-0.4631283446438535
-0.5231006711112196
-0.47497601532451045
-0.48552688756557916
-0.5193002014632936
-0.560873238414109
-0.545985759626542
-0.4427582689201471
-0.528503235495607
-0.5445896133088239
-0.4020445815251084
-0.6351693513690768
-0.41910626970945414
-0.46114277692748146
-0.5322956512247203
-0.346827506460829
-0.40522250494498746
-0.5686386557119169
-0.454861776721266
-0.5598515410683261
-0.5176261138688523
-0.5396463495245803
-0.5683907325260164
-0.5176865260734759
-0.55843789315573
-0.6078094269923183
-0.5003601935628937
-0.49271266606177505
-0.5707311999999998
-0.5767662050681585
-0.703960219241644
-0.4020445815251083
-0.4020445815251086
-0.7198882406241702
-0.40204458152510847
-0.6985371133805102
-0.4020445815251086
-0.4020445815251083
-0.729378484609099
-0.4493186358019982
-0.4598762704875874
-0.565904743058973
-0.5707311999999999
-0.4774099268681616
-0.4722848691795205
-0.687436603039938
-0.5097062747919611
-0.4560595731987345
-0.5922128932818983
-0.6103110329506319
-0.435212649708622
-0.641946211111337
-0.6298519542797171
-0.47780328600939004
-0.5260817413940636
-0.4880013731627155
-0.5272076004159293
-0.4098466958085317
-0.5206190235635086
-0.42925322231332336
-0.550293800004033
-0.615592460159391
-0.4404917730479596
-0.48145737245087783
-0.45770242075553214
-0.5038710204494453
-0.5078260156633939
-0.49730966036482027
-0.35666617888726215
-0.5635586167415615
-0.4761934630722442
-0.4431539270576578
-0.41606985978043814
-0.48757633149384433
-0.40545326691168787
-0.45602494597365584
-0.50449003099814
-0.47142321787730956
-0.5241963640533475
-0.4949349653423723
-0.49867151662209075
-0.4887053100604729
-0.5044900309981402
-0.45564242980848924
-0.5459916802885032
-0.5557638766121259
-0.6174832736367999
-0.4290486266121031
-0.6541224172345467
-0.5931847352695739
-0.5447611478321779
-0.7022946520352005
-0.5269381659570059
-0.6091689838773025
-0.48900825400273007
-0.4298806448344105
-0.4193287037756984
-0.5658878246791236
-0.629425896334577
-0.5270479037179305
-0.432708125
-0.42036299627646145
-0.4560985196553779
-0.42291322048509034
-0.45595137229193383
-0.4326938326185852
-0.432708125
-0.44303643289436073
-0.5919497146625742
-0.41299010912021866
-0.5836570770040357
-0.5840877955819713
-0.6458731947065441
-0.4129901091202187
-0.5835171301313978
-0.5479489046782144
-0.7309825852275383
-0.6972695679426072
-0.4321724979257622
-0.38970534806548635
-0.5525341260955089
-0.8268617896094741
-0.7197399999999999
-0.71974
-0.8210268411323357
-0.7197399999999999
-0.7197399999999999
-0.7267127380091887
-0.7197399999999999
-0.71974
-0.71974
-0.5680565711827433
-0.5843787480659154
-0.6705221812976043
-0.563606185069474
-0.41744678220472287
-0.4971914441621966
-0.5037338746328753
-0.42033536317375797
-0.5134124918314865
-0.4772785732977369
-0.35832296940652064
-0.5721475035763467
-0.3752011444513331
-0.5384371637898537
-0.4487026229639864
-0.5422179392949178
-0.47118100382255335
-0.5415873317058947
-0.45100667319280063
-0.49449386774491993
-0.4542890428659996
-0.6646101184375922
-0.6093868802610403
-0.3701142883929687
-0.46309006104924805
-0.5971238538625552
-0.41511074280861937
-0.5892982022783254
-0.366025956512874
-0.5733878726325309
-0.397378912934797
-0.5612977660234816
-0.5290126727880319
-0.4186361878088595
-0.5326960509327944
-0.571313289966354
-0.596502592292575
-0.6512311435005128
-0.5237234438933662
-0.5393561800279947
-0.5759010327794908
-0.44596785950690415
-0.44974989724510256
-0.5630076423406631
-0.43822688274109556
-0.573638564786236
-0.3940248537974135
-0.5066634937483554
-0.6537597537672523
-0.5693106313418805
-0.5269423005123504
-0.5819502433265156
-0.5031065266125822
-0.332721115203448
-0.3724216484734859
-0.5303875651514415
-0.5286444234402984
-0.39670771724131704
-0.5574985274108941
-0.5156094737586104
-0.46675505761053765
-0.46313777104062825
-0.5728987905437107
-0.6338351461962876
-0.505455799140278
-0.615839512348158
-0.6134397737711124
-0.5310275136169628
-0.6239903985648977
-0.5062739277419741
-0.5684824042854892
-0.5007173576419365
-0.5070572304593847
-0.35799429109380926
-0.5092570601857977
-0.3838344909856883
-0.6316566550134424
-0.44504645155074474
-0.4192970982456446
-0.49476069808350165
-0.46735870486353565
-0.43670733812884693
-0.5561679558516435
-0.4134961613937657
-0.41405428189879784
-0.4623399056046987
-0.46653884656745603
-0.45465269304733325
-0.4555299408459005
-0.4122233356152834
-0.5426201048022444
-0.4431941806854099
-0.5343490955248341
-0.5622087861364927
-0.5851842414953494
-0.4712915653735699
-0.415737330901564
-0.5289838711522946
-0.49039573464030395
-0.3438146382889382
-0.5088083458733548
-0.657376599075312
-0.4949877877737129
-0.41103909135555133
-0.4929515404758156
-0.5421618216198494
-0.5634975631047495
-0.5581498127288688
-0.45940184289480285
-0.5578939503303018
-0.42469219447543516
-0.5114352343576176
-0.5035298961851976
-0.6220546321663837
-0.5320477405119983
-0.492484279038276
-0.6101305981762226
-0.5811580293830837
-0.5860503922037614
-0.42852987684521077
-0.399732249954365
-0.3121557058594387
-0.3538314982480851
-0.6595735075709374
-0.3957010995449959
-0.34471618059881076
-0.42609859952702384
-0.3404834285263894
-0.4762765015945576
-0.5052331610876756
-0.45126276161085943
-0.29473081058488815
-0.467028404351896
-0.5116118536221359
-0.4585760533691517
-0.5018821126811942
-0.5780946951563378
-0.626067337782911
-0.5979069611157539
-0.5081332747231001
-0.497336339491744
-0.5463578776080953
-0.5872673344810034
-0.5717902819641784
-0.7320037596828667
-0.6506714359905298
-0.5757137963911253
-0.5076680376980952
-0.6478803565016562
-0.597641270506006
-0.5416817808542156
-0.5570037162373199
-0.5283735848155438
-0.4710862498167189
-0.44133538640479014
-0.5676217114470626
-0.5433095880792175
-0.6287218280430016
-0.5630211720193031
-0.49681431667570763
-0.4271178373643024
-0.4706804702731623
-0.4016229077544549
-0.43331170828072085
-0.6446674109567965
-0.6144499260949927
-0.6425454789885197
-0.41559475763954773
-0.546490596569506
-0.4899000402101585
-0.6326846246112475
-0.4940746675255027
-0.44214624871305125
-0.5846627626512406
-0.4261990292619666
-0.4439479473987381
-0.44661715681633457
-0.5423835975173182
-0.5068970018204325
-0.6142914452728615
-0.46184656007975633
-0.5692138211957596
-0.5011533258053583
-0.5029041176543328
-0.447435503870107
-0.5001862421228664
-0.478702528227033
-0.5649820015268526
-0.4404433196937369
-0.5375478063373946
-0.5483873822887945
-0.5669519591499464
-0.23076701717279308
-0.6359660372051837
-0.482257641364095
-0.614468
-0.28619507482288964
-0.6089950634548893
-0.4766314565308373
-0.5768898991440982
-0.5800755587605969
-0.43204547137512955
-0.5473147365158098
-0.43648179544641497
-0.49673393387412096
-0.4470375251351604
-0.5365839026537697
-0.578838656353337
-0.4840985070989668
-0.5195368280820056
-0.6330565456788977
-0.4668121698976631
-0.5703339621381508
-0.2735770822913675
-0.4124874903750446
-0.4777485655141432
-0.38316673502662507
-0.6467156127916067
-0.4760254818613655
-0.5362221841998008
-0.524867966087112
-0.4935439135281818
-0.5818748647315708
-0.5362700000000001
-0.5496708060134234
-0.522720308336408
-0.587566061044882
-0.40120052851865834
-0.5390541690977153
-0.493902149778375
-0.5652880755762333
-0.6413436486877415
-0.3010531501115273
-0.44700824270316464
-0.5189443455467523
-0.6010363536297215
-0.5378707287616586
-0.47156372397212437
-0.5553600355268421
-0.4414378504123175
-0.4524344835717907
-0.3775305446822199
-0.5324965325615219
-0.6051782571151665
-0.46384082239443514
-0.5280166873552031
-0.48187381793927914
-0.454067506716265
-0.5377263826188119
-0.4120308569751298
-0.5242762346077539
-0.444060717613029
-0.40612130244696226
-0.42439580097508794
-0.4150467946878101
-0.5788486835897634
-0.5779509176967805
-0.6072371855338505
-0.4563230806307138
-0.42265415581731774
-0.44704188076023826
-0.4294738046454621
-0.38907064860031393
-0.47325328893147733
-0.6198684773487916
-0.5098857392237008
-0.5078577185604437
-0.561407419665798
-0.5534035579065175
-0.4684253268719027
-0.5284018252738168
-0.36543282911895303
-0.5015990434852047
-0.4326247518385226
-0.5332809181195558
-0.46606105302637785
-0.4705683104993945
-0.649495109722028
-0.435049190322531
-0.47954675809443625
-0.4281601822690649
-0.5971285239667995
-0.5368740431747397
-0.537861803855808
-0.4888037761370708
-0.5321101646333232
-0.6363970321028949
-0.5311004636675591
-0.557100835844077
-0.5600729327426454
-0.5968629563964684
-0.49232155115529974
-0.543579460632362
-0.5137611301488465
-0.5135010581640448
-0.463003530625088
-0.6017997480236074
-0.47914916116308587
-0.3740563960729935
-0.4264484503729211
-0.4384166563307493
-0.5230590472153487
-0.5029081307395822
-0.5790404202621263
-0.5374956041330012
-0.3856352614068125
-0.5032304141153824
-0.5228959541450683
-0.4398312130062472
-0.4854448632971237
-0.6010169352074265
-0.45203279765933
-0.5916719791252288
-0.6100831586563303
-0.19545074004095261
-0.49595292425353676
-0.6071820938721453
-0.5415049108108237
-0.5433596333710702
-0.6476104192221714
-0.6101622616243033
-0.5944098862864637
-0.5589450537224773
-0.3384027952153095
-0.5742578551403232
-0.5800875895185006
-0.41370559212626973
-0.5201712462926011
-0.48513843735820655
-0.4584041875894594
-0.5561681694097211
-0.487113427828536
-0.3650228009433433
-0.4379500827859833
-0.5150626178521815
-0.4964820169456502
-0.5237547273692714
-0.5313833905430594
-0.4591356670269588
-0.48637962429423015
-0.4384544255842468
-0.4541098594721394
-0.5598875858648488
-0.4696188866428794
-0.5069496263995602
-0.4594022925206306
-0.5364788463801994
-0.5543256326081584
-0.4613115222915293
-0.4864701488124937
-0.45200073013413616
-0.3913776780587907
-0.5985900199601718
-0.4000638706510763
-0.5211991139786398
-0.5434609614899574
-0.4825409041775962
-0.3702241351518912
-0.5865529364703571
-0.362088484489764
-0.4339572037181748
-0.5483430156241055
-0.5500606631268317
-0.4092379317829459
-0.566697553544557
-0.4007106747731087
-0.40211538087407717
-0.40351449948177015
-0.5365965405155054
-0.46923872405820466
-0.5865192204402873
-0.550167264923121
-0.4973166148215017
-0.4421987854228054
-0.5069067174619859
-0.454175107578089
-0.3985455885989724
-0.5440763979328168
-0.39248556485999253
-0.531832965076161
-0.4774855557253394
-0.4602887091095821
-0.46376903469756675
-0.46025819540759405
-0.5656930099194045
-0.5007351835172555
-0.45533197047005564
-0.4479231389739561
-0.4191133646187305
-0.39816898012443785
-0.44848292197222844
-0.5147539135219945
-0.53658832836343
-0.4265168863420545
-0.43137462592258374
-0.5112992251170149
-0.5090056448900705
-0.4941480176091731
-0.46137848729076214
-0.3378864823168702
-0.4319538919236479
-0.5192823994872612
-0.4446964924637499
-0.53544695025709
-0.6341182421791394
-0.5086170136391817
-0.39428065336799434
-0.3942285190560344
-0.3941534904025839
-0.49211629617505176
-0.4952431810653844
-0.46638222090759557
-0.4585412689970087
-0.48880517079497665
-0.5042775739747779
-0.46636417450561934
-0.5486477790845362
-0.5497170261457702
-0.5535170710930107
-0.5965488029163418
-0.6800195846249225
-0.6031996891100821
-0.46857173510702305
-0.6034431328560583
-0.6268186906651991
-0.5459271581074764
-0.44076314315245535
-0.477962842666969
-0.5371409540026397
-0.44988289334892795
-0.4637244657021141
-0.5920816398650269
-0.5471370323191788
-0.4296778353882005
-0.3297205108142615
-0.5202734751650676
-0.48011822891094275
-0.6053136436049711
-0.5992789097076169
-0.5706769377397858
-0.6590176773953027
-0.5049332377260984
-0.5273445196520672
-0.3905133088908308
-0.40825930562492363
-0.4690506059688996
-0.5371381831291194
-0.4230643531420848
-0.44868333415995126
-0.5564869064430747
-0.41299591091395355
-0.5078896690493319
-0.4331710880265821
-0.5888946461464797
-0.41374149879785127
-0.5062294076848312
-0.4483614431267133
-0.4374465223760576
-0.5369405985487536
-0.34683636843106674
-0.5404618098435882
-0.3916688197338021
-0.4245924689105119
-0.5406323862559878
-0.45982281256457946
-0.5165544711423867
-0.5030380846060907
-0.44814472594003585
-0.49938228162294596
-0.5583427055100558
-0.4835184356069087
-0.5194146845268963
-0.6092328286247857
-0.40204458152510847
-0.6258153362768014
-0.5152805628168587
-0.4371837745096873
-0.5563752222282516
-0.6074299672128517
-0.6806061909149215
-0.44324851041728447
-0.6622029752473342
-0.5938324240308522
-0.8091572455509957
-0.7197399999999999
-0.4755131242665733
-0.3852680735336295
-0.5539464547656082
-0.45303996265297625
-0.38250454051300414
-0.49921330490952787
-0.41698654180780875
-0.5179857518252212
-0.4933682993713842
-0.40678125529184855
-0.4672291641322975
-0.5070693285567706
-0.6029210996219161
-0.49410115281662725
-0.4418717957301783
-0.5773134746257857
-0.5684288581423935
-0.4503129347287073
-0.4857634273250175
-0.42290400341530804
-0.5249620922155848
-0.42720416405888867
-0.5990080205125384
-0.5599714137085846
-0.4102047447675427
-0.638710661936353
-0.47531326783650074
-0.4517098591955454
-0.41461099705008786
-0.5303636242662885
-0.4206540153856272
</DataArray>
</PointData>
<CellData/>
<Points>
<DataArray type="Float64" NumberOfComponents="3" Format="ascii">
0.051026113098727434 0.08600177986450669 0.29999999999999993
0.04227883291249092 0.047939224310635895 0.3
0.0720391719122123 0.06935674235575601 0.2578594489271271
0.0860017798645065 0.05102611309872777 0.29999999999999993
0.1 0 0.3
0.053164023606176045 0.013943122276674463 0.3
0.0933012538660835 0.03598438587799763 0.2608244526866328
0.07167184254219708 0.0032192138312489875 0.25948857686412263
0.04638482881804534 0.037015897754092045 0.2599806508510354
0.037013369917786594 0.09289784953016453 0.2613756306428428
0 0.1 0.3
0 0.10000000000000002 0.24
0.015967628792777952 0.06205739579696616 0.3
0.0900257541414851 0.043535773695397614 0.2165491991335119
0.052540912315940456 0.08508497242761882 0.20840741109977517
-4.974679776301841E-4 0.045670612998757194 0.26416801933830164
-0.01276175732628658 0.06190746481407493 0.3
-0.051026113098727795 0.08600177986450647 0.2999999999999999
-0.03598438587799764 0.0933012538660835 0.2608244526866328
-0.03931430301398858 0.03769179248074707 0.3
-0.08600177986450669 0.05102611309872741 0.29999999999999993
-0.06935674235575601 0.07203917191221229 0.2578594489271271
-0.09289784953016453 0.0370133699177866 0.26137563064284275
-0.06243214200573856 0.012692146005555127 0.3
-0.1 0 0.3
0.08600177986450548 -0.05102611309872943 0.29999999999999993
0.058453283185157204 -0.02278808167319614 0.3
0.09289774606158197 -0.03701362960691413 0.2613753747279502
0.050042431218310555 -0.0295459582154997 0.25815270104161236
0.10000000000000002 0 0.24
0.04619450246111688 -0.04739064463759382 0.3
0.051026113098729654 -0.08600177986450536 0.3
0.06935654097514962 -0.07203936579372688 0.2578581990573389
0.02021751731938387 -0.06054059803436248 0.3
0.03598438587799806 -0.09330125386608334 0.2608186501391343
0 -0.1 0.3
0.0157403018785058 -0.06223916528955508 0.25995241852133005
0.053890359975504266 -0.011701271793405636 0.2163054020832249
0.10000000000000002 0 0.18
-0.010419645895973639 0.05958265605507741 0.2203764523416998
0 0.10000000000000002 0.18
-0.04353577369539764 0.09002575414148509 0.21654919913351192
0.022696481903450395 0.02913955796866975 0.2242037055498876
0.05489725004665383 0.018865110950033247 0.17061690892274955
0.0871018217960028 0.049125071397580364 0.1591806407171875
0.026167148076315705 0.04879282329614361 0.16802659032774095
0.04913265630104126 0.08709754350613884 0.13809616141512307
-0.011582967692963218 0.06343752975373772 0.16005389203456122
0 0.10000000000000002 0.11999999999999998
-0.04912507139758038 0.0871018217960028 0.1591806407171874
-0.03697447780442473 0.02388403693479061 0.24388370937437487
-0.047755558676214144 0.03969692768776785 0.20001665211424993
-0.08508497242761882 0.052540912315940436 0.20840741109977517
-0.10000000000000002 0 0.24
-0.037309222477960535 0.009167355227784845 0.27283092344195686
-0.09330125386608336 -0.035984385877998015 0.26082445268663423
-0.06250578181763533 -0.015810710485154103 0.3
-0.08600177986450536 -0.05102611309872964 0.29999999999999993
-0.05169513507612061 -0.03354986301692461 0.25679110081028167
-0.014295897018079345 -0.053611712980559056 0.3
-0.0370133699177869 -0.0928978495301644 0.26137563064284286