<?xml version="1.0" encoding="UTF-8"?>
<VTKFile type="UnstructuredGrid" version="0.1" byte_order="LittleEndian">
<UnstructuredGrid>
<Piece NumberOfPoints="1536" NumberOfCells="6750">
<PointData>
<DataArray type="Float64" Name="f" Format="ascii">
-0.42847337322007983
-0.42466
-0.4066621612569366
-0.4552475334284006
-0.46545393142786284
-0.47537674743601593
-0.4218183751503171
-0.5372885677083333
-0.4981735421058342
-0.44561278305500535
-0.5758546466212028
-0.5168907637767599
-0.5026027301961263
-0.6022072
-0.5592280772934879
-0.5597041754381338
-0.5999265468071916
-0.5869209960708783
-0.5207451632710792
-0.448012238065716
-0.3511415592882559
-0.46787234954731544
-0.5553218970861744
-0.28234288081430414
-0.4108084494792584
-0.2762175773861303
-0.5161072628056107
-0.39355949075858204
-0.37062058917131685
-0.4788078119995092
-0.45782902270292053
-0.5009874020496573
-0.4793578902597941
-0.5538391063616775
-0.5273376026451749
-0.5748664796695379
-0.5655356747516166
-0.4333381463112213
-0.36206135576167003
-0.608355367954058
-0.4885894652435228
-0.2795414785386314
-0.5046907432996175
-0.5860403316800992
-0.3660813736978941
-0.25453522506321663
-0.30612447748628396
-0.3138251543707378
-0.39011789718943946
-0.5085154559052081
-0.3826325376520619
-0.40101453365383316
-0.33549565223419786
-0.4535401599552466
-0.5242988176003498
-0.37083712632466553
-0.4549197027993263
-0.47223347279129785
-0.4860183496590204
-0.5242801866864429
-0.53294618287255
-0.3326498925397804
-0.35911880123074136
-0.622007691086334
-0.5336566759941165
-0.3748851121906647
-0.6459018168895463
-0.5323287201739059
-0.4485850455441655
-0.4226191398813662
-0.5243092728627404
-0.5881658710477372
-0.3951388957058572
-0.3761959002009918
-0.44191728538954417
-0.40403141800711434
-0.3977594802510654
-0.3195863047620984
-0.3881719117336466
-0.5370865744854619
-0.4852178497689818
-0.34918682077710717
-0.30751185215423055
-0.4915811525684329
-0.4518240402694058
-0.29093693357867073
-0.4879146065202819
-0.3477219665528089
-0.4658458606323619
-0.4317496676953252
-0.3812780016378156
-0.269143333333333
-0.3328227447454894
-0.47709987356597044
-0.4464288454861108
-0.574452701753115
-0.6133466720399341
-0.583594725719408
-0.530596836904964
-0.585961629468898
-0.6355024277188291
-0.5229664593102258
-0.5191813132076112
-0.5551601058453707
-0.6068105333333327
-0.544702655318222
-0.61842
-0.39243475080906287
-0.452637307972754
-0.5553396818577864
-0.48998844595990876
-0.5136010253394626
-0.4493401701597007
-0.29786717643662636
-0.40681971272551093
-0.6080201289602576
-0.4880686917295318
-0.26271859859621105
-0.30969357112346074
-0.5584294791666665
-0.3019020458697672
-0.253744520289306
-0.5081651167596614
-0.24661023792555434
-0.4085361333333338
-0.30511325687125496
-0.2226074497282332
-0.43920800000000004
-0.4172242077004154
-0.3278143173901354
-0.5115958697916668
-0.4575414890157416
-0.49415489017824404
-0.6441594500929944
-0.5471096770161635
-0.5409221880238021
-0.5728614487523257
-0.544994150173141
-0.6033828800165147
-0.65133736293564
-0.6523364000000001
-0.63222548232652
-0.5014502270189175
-0.4993513239223355
-0.6134056644168117
-0.6872800131522928
-0.535043636701798
-0.5951471927954871
-0.597068
-0.3703030728038026
-0.4283580568129169
-0.6004821057186782
-0.5822762813749957
-0.5508531969462155
-0.39075898678802745
-0.2513961174788178
-0.46801517700353595
-0.6237071592783184
-0.38884128233983156
-0.18877725392027858
-0.3433582629948387
-0.5664484401041667
-0.1929226875227643
-0.25046073372600025
-0.4544615046497211
-0.2077425075400702
-0.31388776
-0.24098298946063235
-0.31601144865356406
-0.6654509743748716
-0.5535495505694427
-0.34169340138557486
-0.5942795734150053
-0.32049594819866306
-0.49239071369160764
-0.6699259928741431
-0.38636164460831934
-0.5222116855909702
-0.6649774290674437
-0.6238993222566646
-0.5046275743654896
-0.5804551122229563
-0.49088259452895316
-0.5642749510918239
-0.48226123503673035
-0.6035692175161668
-0.6257356199551158
-0.6999956020699774
-0.49034320430381506
-0.6171562039390742
-0.5133301319611375
-0.44364564948248225
-0.5677860902814965
-0.6726136021629823
-0.5774061407796676
-0.6418116303043321
-0.5445484418268237
-0.3780069310513821
-0.37114612593655555
-0.531004625597174
-0.5912331649523849
-0.47267984081548803
-0.33494848651877523
-0.24374807004729784
-0.5462732981065522
-0.6072862872483296
-0.3198032144357219
-0.1883602390438789
-0.3983558208555677
-0.5471917018369086
-0.19980551550459968
-0.2756584157463778
-0.38950295088457093
-0.24180868239332667
-0.2509152581525106
-0.24110898596941793
-0.4793555229075593
-0.6454295453606125
-0.542271147172766
-0.35133934407935463
-0.4529224302712683
-0.5993859853103263
-0.5672042909595051
-0.6741064431917927
-0.3446010436266389
-0.4903944771647036
-0.6786565364527068
-0.6122312743955363
-0.4283997728920729
-0.5018947462559407
-0.5401618527906721
-0.640748375054896
-0.45742803515544
-0.5617798873595242
-0.5220596538083591
-0.5539988496719347
-0.4855707036577803
-0.5601085920644764
-0.43439620573149185
-0.5636493975576772
-0.5488465128146149
-0.617700766017773
-0.4866405384436427
-0.5347882513054857
-0.544468862102295
-0.3857266734986354
-0.5301090286496511
-0.5670935661913621
-0.5293196024665018
-0.5949599514221506
-0.5652932496383548
-0.41680606598594605
-0.34211597074272676
-0.511151824467755
-0.4954697928883514
-0.4532038780166235
-0.34760825968175246
-0.27478453573100986
-0.5398856722680455
-0.5845511467762161
-0.3479576452867259
-0.2204495050382308
-0.3918275259756417
-0.49427655351941957
-0.2497762504913639
-0.27132936516976996
-0.3178420156824073
-0.27363825062485075
-0.20347045001033284
-0.22920254069378693
-0.4107983448537525
-0.48735400000000006
-0.4281318333436666
-0.40698720002109634
-0.5112353255208334
-0.41039602115212553
-0.4629735319280845
-0.41519975599567793
-0.5580593915812025
-0.6051055313081214
-0.6592609273587233
-0.5735721600000001
-0.5156288648394115
-0.4179993074119899
-0.5607836006061858
-0.588458688427846
-0.4312471109733416
-0.606783136954039
-0.4082968696649296
-0.5416643557132428
-0.4987934215058211
-0.4260546533758269
-0.5778292168474654
-0.458821518442644
-0.5478381402237106
-0.4395397311459035
-0.4970211357718537
-0.4613657357289081
-0.43851732405189314
-0.46275097210831184
-0.5670187824877787
-0.5032571860136392
-0.45124376053380405
-0.4912876824680578
-0.45838837178995623
-0.3683077983377246
-0.5212304109539407
-0.5881080339464083
-0.45173859641228725
-0.5129322592119626
-0.6489739999999999
-0.3675717360436739
-0.3329415786730107
-0.5854383498243442
-0.5110387878811179
-0.5579001541613506
-0.3563839301177929
-0.2600275708020136
-0.45181333794800455
-0.5561454913509828
-0.3779710382462857
-0.23433061881076087
-0.29617529984593366
-0.43404409114583326
-0.29439242935549886
-0.20467021639459118
-0.2878738282703038
-0.2671657631029371
-0.23682319999999993
-0.31669816986980776
-0.2759621408642811
-0.40015666666666644
-0.3336066170665672
-0.3053209178649227
-0.292678184695549
-0.40703212239583303
-0.4665723960030265
-0.49096137838396287
-0.37483321804267505
-0.4146898633698835
-0.4837703992560441
-0.42102566934902624
-0.5780526285217763
-0.5767766385308213
-0.479831333333333
-0.5292088180974232
-0.3999555734655921
-0.688667442951946
-0.4772428147028271
-0.44824273962242606
-0.4371455555555572
-0.4006145124814428
-0.6126893443848952
-0.5366319989307821
-0.4799033613473646
-0.38168044757200786
-0.4769963492457115
-0.46500548492728916
-0.5400643354255
-0.5534380729718898
-0.45793956886574166
-0.3983348776936657
-0.41953908773094967
-0.38819048473515133
-0.38107963939390993
-0.42154493554378064
-0.6023664734449263
-0.5929072984335613
-0.4916457736543603
-0.5687146204972408
-0.35836655549104973
-0.325008109630934
-0.5244720287497985
-0.7134800888888883
-0.5229415246154963
-0.5033137485460504
-0.7007766666666668
-0.2975412131055854
-0.32153836974992006
-0.6226294473899577
-0.6718169559826402
-0.625864158072451
-0.3764592772428557
-0.228779627873271
-0.3965241396832114
-0.6058770876475091
-0.4201605322162392
-0.25509670299825365
-0.24655516354477025
-0.5132220746527782
-0.3741148036945738
-0.2238446875466555
-0.4110194554660061
-0.3667482230290658
-0.40386786666666735
-0.5136726782393064
-0.2586582794276699
-0.39215401322587307
-0.27498681632258926
-0.36212771159827145
-0.4066083044017359
-0.2769066042288006
-0.48332787078825673
-0.393678645381277
-0.29561296401593024
-0.4875364761605769
-0.3974716578811369
-0.35472527682920757
-0.44191950197298774
-0.42396
-0.4530845191890384
-0.4398068723004117
-0.2115124116553004
-0.24120039703242094
-0.3118177412957657
-0.31974729507724714
-0.2801802291813375
-0.3893763280411307
-0.36366608323670097
-0.4911242882870717
-0.37282735432940756
-0.5044199824384227
-0.40882933977914965
-0.4168872843795037
-0.33474066666666763
-0.4219437665050522
-0.6033947372784234
-0.6297268845366358
-0.45854815532822163
-0.40396071515957
-0.3770765977371096
-0.5828403194957626
-0.7216308108130355
-0.5209427976117366
-0.2975403276499895
-0.35529800000000084
-0.4798244402204797
-0.6960184656632719
-0.6353764509424696
-0.4401356814236117
-0.29221741294149334
-0.444571173390318
-0.6292130503557543
-0.6777938968061537
-0.6340953754908036
-0.39862564149305585
-0.40742286447366044
-0.3220274415141519
-0.48310012027278404
-0.2841738504120592
-0.43734047057135156
-0.5951370578631946
-0.7206738399999998
-0.6451055738171395
-0.6434447901984692
-0.4221740846923876
-0.2754102223757518
-0.5431046478909637
-0.7418645333333332
-0.6413434370737753
-0.576420301748382
-0.6810625645794587
-0.3523979118369303
-0.34001174543290796
-0.6297552826752887
-0.7472662955156028
-0.627006572397427
-0.4618166936634515
-0.29687155984742114
-0.49479643773560505
-0.6864448718660899
-0.5452395714938466
-0.37492561098573957
-0.38702991047971474
-0.6376699554132649
-0.551401550467136
-0.3887073545566658
-0.5487718325986403
-0.5293246744198906
-0.5300869761520969
-0.6124233123053325
-0.23773662533581288
-0.2629010646621384
-0.2967043044227243
-0.387088177540826
-0.32702332984630805
-0.35370381530866873
-0.5564501461659352
-0.35640264147201783
-0.43833532955157134
-0.5924411708639389
-0.3969692854141513
-0.5326165494791667
-0.4642002487500922
-0.5534543671431462
-0.5422150785286214
-0.29879823310601367
-0.24372436176183113
-0.3357128420039741
-0.3298218934867007
-0.3855925892282868
-0.37048087057994933
-0.39442380592087717
-0.4010691582314016
-0.3680525187848729
-0.3818715492191902
-0.4734293724904095
-0.49233347338281
-0.5837435280775339
-0.42886784116472226
-0.3845901832334513
-0.25262999999999997
-0.35086549793753075
-0.5958683596976079
-0.7268101014817229
-0.4829334574085546
-0.3703598695394504
-0.4498043275152395
-0.723482497185369
-0.7543911671697429
-0.5015785903613731
-0.2110408849401698
-0.4034008414272927
-0.6786478392044027
-0.813309312176822
-0.6893023264096686
-0.3668292270833334
-0.3717239332475504
-0.3462966235472873
-0.8199169484599365
-0.7441568082799485
-0.5758766753874768
-0.4571608514200669
-0.32930734402883216
-0.389010542467452
-0.6005584376937392
-0.35281409300337613
-0.396234230424411
-0.6060288054820693
-0.6758595359999995
-0.6730492380914689
-0.6482927514049612
-0.5556293197499897
-0.3597650268698984
-0.5559379395905162
-0.6956634771509266
-0.6344310556726597
-0.6756886017067832
-0.5813644327340358
-0.5181002971910812
-0.4481647120532221
-0.6802998504284505
-0.6889808436894284
-0.6687005779137714
-0.6137440556230623
-0.4804921318311592
-0.6733545736680905
-0.6527070945978902
-0.7352914900511919
-0.5330077006130741
-0.5948895626384426
-0.630704288943835
-0.6673920639615237
-0.5287887086076536
-0.5500656252668856
-0.5753102514129488
-0.5208781723496588
-0.592301562277435
-0.36781606840256303
-0.3021915354511479
-0.33012636415853236
-0.42765435087659015
-0.5067072144984166
-0.4190713400117699
-0.3705431979650691
-0.534220463141689
-0.6356508926676429
-0.5030628436674344
-0.4429146740081473
-0.5886665964042158
-0.6426385228745647
-0.5337745185343769
-0.5060945559356832
-0.528019782200765
-0.5822516415938974
-0.5648365313081215
-0.3984867547013851
-0.36486352583481363
-0.3300969914404935
-0.35600385317562977
-0.5071364824137224
-0.4947108858579589
-0.40867890230831766
-0.46816527555113124
-0.3596359738549158
-0.35949149155532023
-0.6067026294667213
-0.4109957775399771
-0.36328684698314534
-0.5506544316277361
-0.5613561864005342
-0.4445398102671709
-0.3676185387476761
-0.3441135984707589
-0.3105459715538854
-0.5450474127361103
-0.7241742484002228
-0.5838067106013635
-0.3990191197521528
-0.6177667256156607
-0.8041974529448231
-0.6994590852510144
-0.42444155310503473
-0.32975977707169357
-0.38917420851415613
-0.8495429358161056
-0.771691378728388
-0.5796503367332639
-0.4252578608998831
-0.38191883420184963
-0.3377601558173176
-0.7805788280471654
-0.6106694046290554
-0.5465589278084769
-0.4727849960889064
-0.327516165699489
-0.5250813701177933
-0.6314585676198686
-0.4990944316286943
-0.4006707737006614
-0.6250272515158598
-0.589796646274023
-0.5421737749805356
-0.5939561183127263
-0.6447532809439545
-0.5032655613098546
-0.5800393031366992
-0.6926776415926157
-0.5651483648834053
-0.6694021899135492
-0.4825604122752631
-0.6813951529888823
-0.5584299444233909
-0.7465611885596196
-0.6344322348204888
-0.7565478229894093
-0.6752156705930973
-0.6506758541765776
-0.7074261811800024
-0.5553612813565877
-0.770675085129899
-0.5970193052893881
-0.6456109248140112
-0.5777574681582905
-0.6183051365238265
-0.5486114843408761
-0.5365712883503494
-0.5619790979071705
-0.5247912339326309
-0.599376369357413
-0.47295708273059245
-0.42365538707364386
-0.3679345750810696
-0.41197820486077336
-0.6238556530852709
-0.6015545398995831
-0.5219382957774735
-0.4899199265368371
-0.5065564469808853
-0.6311819999999999
-0.7087314356424422
-0.5978166221788821
-0.5605264787647962
-0.5446000768246754
-0.6874348472007571
-0.5802946447201021
-0.5235484744878851
-0.518755420827283
-0.5970575354555185
-0.5699623041950819
-0.5241693333333328
-0.4286950003145708
-0.3762597070637011
-0.331125636602273
-0.44631649548292546
-0.6764008914808778
-0.5477952091341179
-0.4321663598073861
-0.4837612621247926
-0.3425224779664304
-0.3080830813128301
-0.4985223305205633
-0.3810231724699715
-0.38608914778006925
-0.5640793847446778
-0.47161962673611174
-0.4477939797883311
-0.4075769613434175
-0.3780386982847697
-0.39950661474154203
-0.46869696993664783
-0.5875396009506102
-0.6439288354894255
-0.5232362020581814
-0.7442108174711549
-0.687470880000001
-0.5587502984758324
-0.4598072818391466
-0.41406747560710255
-0.3464933333333335
-0.7825070754288087
-0.5883643214300475
-0.5268161828070953
-0.5057415363719583
-0.36269727385454753
-0.41985293173520694
-0.5836000058839452
-0.5076198773018064
-0.5929540680691351
-0.45464098524305524
-0.4165157454068371
-0.598643391232401
-0.63393142458426
-0.5468923435784938
-0.4440139326271211
-0.6063402198801403
-0.584713853283736
-0.4524381437370713
-0.49963817036472385
-0.6493296380657347
-0.5465865883229367
-0.5446561394725831
-0.6838055466666672
-0.5105515815876301
-0.5380257033757676
-0.44642434832041367
-0.7000877618164343
-0.5662230406508305
-0.6665100784459583
-0.616386626162431
-0.6924653044793737
-0.5897743011369324
-0.6661433883434316
-0.5873453110275283
-0.4894976774254988
-0.6119256835840989
-0.5736390491059741
-0.5641600933935303
-0.5611563959409992
-0.5620593090039554
-0.520987428824815
-0.5887450437748204
-0.5716864057054757
-0.6097448222842373
-0.6430660746383949
-0.5386144444444445
-0.5196026046862481
-0.40901894405453915
-0.4610578983495727
-0.5638993587409883
-0.6338923868567886
-0.6261579775435687
-0.6302636342255957
-0.5699301617065587
-0.5848476414851967
-0.5925051888813112
-0.7597841496176895
-0.6807292769339596
-0.6201835686909708
-0.5499504785212165
-0.7590229947647581
-0.621842819969364
-0.5098024153403661
-0.5475863762659788
-0.6583955755383294
-0.6159066666666666
-0.6017355999999998
-0.42007922926956986
-0.45270206239926464
-0.28860178483403937
-0.4072242588318405
-0.5825674057388815
-0.5239782033300113
-0.44857822310124645
-0.4084470399305557
-0.39573332516614207
-0.27240397752805884
-0.43482743484907055
-0.45023284563844407
-0.45376589424803865
-0.4654028879933871
-0.40308169374999997
-0.4706552775355491
-0.3922786685813047
-0.32844359999999995
-0.4758051314375659
-0.4706858145358043
-0.4492277600743955
-0.5580225333333336
-0.6390059767201821
-0.6911525762898673
-0.5120263840000002
-0.5027533436593736
-0.563636541917972
-0.40531070588381185
-0.3569022222222226
-0.6000519365158091
-0.48960676041941703
-0.5956727313969222
-0.5132606541666666
-0.3975256664668887
-0.5250238542319124
-0.472651233199672
-0.5202511124093049
-0.5893987232486051
-0.4432784606481482
-0.45884663088642147
-0.6704143948703748
-0.5890609213274157
-0.5472877409625224
-0.4188204130621356
-0.5055463508300609
-0.5590955199999997
-0.41536032580640914
-0.40770963303161606
-0.537079199243213
-0.5009776630986219
-0.4480983964751157
-0.5382426666666665
-0.45497910204587727
-0.40175823098478486
-0.43361999999999995
-0.5562611324060674
-0.5015083290358363
-0.48944853690893503
-0.5001524157883861
-0.47492058010433436
-0.49704276593802116
-0.5457114398970581
-0.46287900788308
-0.4713907365614731
-0.4869936468989228
-0.5128083528580915
-0.49365054927942387
-0.5532469010416667
-0.5405316331605698
-0.5161666992466608
-0.5998077960322381
-0.570425235210833
-0.6253935999999999
-0.6196263980161191
-0.5749273333333332
-0.528083884281246
-0.5048528259474488
-0.4706149774115515
-0.575901316854194
-0.6038327170788792
-0.61236471915685
-0.7055270992709626
-0.6328776823561388
-0.6195304778170815
-0.5966786992767101
-0.7372749801611905
-0.7533727646602908
-0.6578836977267172
-0.5419609696027974
-0.7211985949576354
-0.6695550512545796
-0.549321966627489
-0.6154779645359288
-0.6157138317312666
-0.5874459999999999
-0.5808895339946268
-0.4123561502883006
-0.4780679876565325
-0.34134282556714024
-0.35972330488211496
-0.5550640290593204
-0.45132909888489975
-0.4509430716853407
-0.36220304427083333
-0.4485347729839451
-0.3233876240504572
-0.43397189797040747
-0.5398378758879296
-0.49972573432527395
-0.3927078559619758
-0.40372813055733187
-0.5049503679899039
-0.3250375899979336
-0.3301180000000002
-0.4572828586937357
-0.558592947036835
-0.4183544090757098
-0.45890391999999974
-0.653892210534021
-0.5675082909692083
-0.45757177050630277
-0.568009465817802
-0.5756835590904736
-0.40816181350362696
-0.4738391658056064
-0.5305356842842952
-0.49959200680718924
-0.5982064283714271
-0.47156738975694407
-0.47567483315481246
-0.6497750755902362
-0.42309864205941405
-0.4955600616077702
-0.4712893938830332
-0.4458453232874599
-0.4826834193170833
-0.6685067847686835
-0.46333915101215223
-0.495120368297347
-0.3726541182615743
-0.42483455221065225
-0.40428714666666576
-0.3559611339014594
-0.3975406660879988
-0.3583470658259458
-0.40719422965370694
-0.4007563473305649
-0.38324179973823896
-0.33640603719776757
-0.37909318959015786
-0.3557265937858267
-0.4121686469276293
-0.4349231038889308
-0.31175591603764113
-0.373733917850027
-0.4392239265333569
-0.38412844928162565
-0.420838176110544
-0.445943771609091
-0.42887455849275535
-0.460127990584757
-0.4961483097946487
-0.5100727428524184
-0.555307441270898
-0.5570450978163528
-0.5197001158709399
-0.617767670263742
-0.481408961752384
-0.5466443248456924
-0.6102050814548358
-0.5669060602051479
-0.7179378991603541
-0.6863556458515414
-0.6233896868746283
-0.5670986137631742
-0.6392972139241283
-0.7232167769059749
-0.6523106214784314
-0.5706674360374296
-0.5816665578325949
-0.611075904722862
-0.5930780121527778
-0.6007710590861182
-0.5060657553456973
-0.5291033323000619
-0.5027028462492257
-0.4220340105843228
-0.5008126208093303
-0.48436921043784603
-0.34055594950452767
-0.527171376978007
-0.36073442818764184
-0.4766817122314788
-0.3956944295526014
-0.513071757420431
-0.445885445215953
-0.42000135007733014
-0.5955562313436226
-0.5427089367885921
-0.41873287770444806
-0.4871588511392348
-0.4936298389607061
-0.3422075315147763
-0.4714861058069835
-0.43866643585144177
-0.5852397752395362
-0.4880084154784043
-0.46695390324447256
-0.624618619151046
-0.5478132419017389
-0.485329868038851
-0.5772481055747073
-0.4977141423081017
-0.503046939416704
-0.6321406540607564
-0.5095860912308768
-0.4688028280719158
-0.448855122152145
-0.4809956881850804
-0.5520404018096835
-0.6372189680141124
-0.34611615284369973
-0.32558668059516305
-0.3978661358166952
-0.45880619934952277
-0.44794071637701144
-0.5123599862624583
-0.4107453895432939
-0.34479965281986424
-0.32369015985071486
-0.4515428304383155
-0.2803007469477168
-0.24297253242249053
-0.3012050733661729
-0.2660494369038784
-0.38607628650904563
-0.4206833880967143
-0.20796238872167414
-0.2611102882208148
-0.29398058210804856
-0.465394729610807
-0.2967382995249262
-0.4099977478197622
-0.3547383353618521
-0.28129642329539445
-0.3926141561957425
-0.3703516348832409
-0.4811955992153805
-0.4912347719914587
-0.5304786690085462
-0.683598277239616
-0.5258175671696835
-0.4894407177222013
-0.5778492678712062
-0.5116709289685851
-0.6820598719006701
-0.6599669834038854
-0.5709092806068058
-0.532668916470345
-0.580099117966148
-0.6211797235080231
-0.5385285927678188
-0.5583604928704283
-0.5344744624157637
-0.5169065439044691
-0.5407983984375001
-0.5678214278221755
-0.5043433610140048
-0.5618129055589994
-0.3878431999999999
-0.46026902512223505
-0.5559629203882076
-0.6207537530065124
-0.370750034263277
-0.4329945898504481
-0.3724647609698976
-0.48603179224998466
-0.49578310927445335
-0.5880728383395638
-0.5823198300805948
-0.4032910811165604
-0.6656888339964075
-0.6046636586798949
-0.5094947881097648
-0.54724119375
-0.49587457866064005
-0.5020363290873749
-0.6500595573465592
-0.5267163216197096
-0.530074384386893
-0.5284592433973961
-0.5267436694358341
-0.6351103462267716
-0.5695299735199398
-0.47101172800000013
-0.441982393055562
-0.48355742191726686
-0.617290675483625
-0.6363517383068121
-0.4321163474271544
-0.3009236844527097
-0.3466000372217064
-0.5361885065370556
-0.5135833869694189
-0.45870706008107115
-0.21663083835587701
-0.19518117262428436
-0.45688000916780075
-0.41980910381201686
-0.33182815185675163
-0.4120336546807191
-0.2989951982664412
-0.26732431568347614
-0.48880937433626853
-0.3469207057408558
-0.158869153527542
-0.2232218384641714
-0.35837209146252724
-0.542484556781705
-0.22645055281464274
-0.22842413653652563
-0.44097793128343094
-0.43063336643367656
-0.3969027849942884
-0.29564614023558583
-0.3702189276891991
-0.376856
-0.561346074273498
-0.6859654144194601
-0.5370211401393304
-0.3991606814539193
-0.477712210882928
-0.4257755325480464
-0.6608878537251995
-0.568113702564179
-0.4209629924845774
-0.44216013333333404
-0.5274953180409178
-0.5645636757633204
-0.4179013772190612
-0.43470109547427155
-0.5391414108286837
-0.477361358917229
-0.4841740113867037
-0.5553246377959546
-0.5664768002067182
-0.64787
-0.381394666666667
-0.4760382911939159
-0.6328444737455302
-0.6716223360434749
-0.4268853549576351
-0.3013776866666352
-0.5554206778161729
-0.5238315650897971
-0.5639397821180557
-0.6507447049849678
-0.6678208395213668
-0.4838980392946733
-0.7296885134053587
-0.6456717897024583
-0.5615458495556939
-0.5400027482638893
-0.616119783264388
-0.6972197172795385
-0.7362373961562306
-0.6642938185365209
-0.5473774060692235
-0.447424687952056
-0.5357132533333341
-0.6401960971536172
-0.5326982922091343
-0.3461271999999995
-0.36549183476556646
-0.5667667930986043
-0.6267709751785661
-0.4891433822566755
-0.29181894730316105
-0.19447744147420884
-0.42727230450225134
-0.5373194870660799
-0.40383480078510003
-0.33865557346559166
-0.15245621033075168
-0.27475076566898665
-0.5323901659312699
-0.3836713760981905
-0.313468476524215
-0.3079372239631773
-0.5123483802020933
-0.49438616991113965
-0.19870539829036057
-0.37582711471887104
-0.587889117602067
-0.36628926596609285
-0.4135252304195091
-0.4842330274277736
-0.36773650158923965
-0.3763966666666672
-0.5512970442300472
-0.6783189956492174
-0.4930592624212837
-0.2859244716237732
-0.3207057387890067
-0.42749688640903744
-0.6137999367519936
-0.5089016073434002
-0.2935229410954721
-0.2955387200000001
-0.49206732486050847
-0.529018652278806
-0.36911431984500553
-0.32872500237242397
-0.5038297582145069
-0.46631527678920764
-0.4445857050516207
-0.5358026527373054
-0.5803480168819978
-0.6932466666666668
-0.6014425695391593
-0.5188070844097245
-0.6553387253629362
-0.6663095373659185
-0.4759532239538676
-0.2698349000099009
-0.7784113112270915
-0.7042294455096346
-0.5465646397569445
-0.6485551357771064
-0.6800354968924096
-0.5940973381534224
-0.7093392773249952
-0.6144445690597228
-0.4858418264792999
-0.6127640090050668
-0.7750816467624433
-0.8574652729620383
-0.6934562257364344
-0.7445799877645704
-0.6585119029045502
-0.42514591916730465
-0.45067839999999987
-0.5999380324120497
-0.4402239911827515
-0.2869750489770613
-0.4888223117226496
-0.6436794641026876
-0.5562246305154107
-0.33014999999999933
-0.22285174610300404
-0.32725617878804747
-0.571155069836097
-0.5171659004204353
-0.3467539027011383
-0.2494781311149947
-0.4529498566081182
-0.5860763262206455
-0.41841563368055495
-0.5541231576772054
-0.590215765953488
-0.3232842949181513
-0.5857035999999995
-0.4725899796383066
-0.4700387084108283
-0.6265652035544516
-0.5479553976804842
-0.6538388391680878
-0.47488273586047586
-0.24029135511862854
-0.22755325356478615
-0.6464542185015895
-0.5666965586310339
-0.5052612963406043
-0.28829722896602017
-0.21230028208307491
-0.5997739310958546
-0.5184648482116997
-0.39165523063469015
-0.28798089732793347
-0.5220805875276051
-0.5174269495696765
-0.4185820703124999
-0.5920819488705648
-0.5645943361932787
-0.6678989253978098
-0.8428576559206445
-0.7221326292427205
-0.5894424229934802
-0.6277501310765867
-0.5272634372847117
-0.33034249220041806
-0.9017051472193861
-0.8784279199944716
-0.6197552969677423
-0.5398525975839251
-0.6164229681339122
-0.624121682384568
-0.6251038593849031
-0.5216650036508915
-0.46897028872641805
-0.7431324607817019
-0.8282019027672177
-0.9028710023121788
-0.5319340000000001
-0.7208768795184818
-0.7381459894872631
-0.5659023656020193
-0.4151050308190402
-0.5460931143827307
-0.3804947728530524
-0.4333357775573466
-0.6663964343522841
-0.6551493380625198
-0.46554358360716724
-0.3268775900762135
-0.5455571114672839
-0.6575940620945816
-0.5133060546875
-0.4061449895385853
-0.5772240406118079
-0.623678880967142
-0.62774848
-0.43535125679824055
-0.5140732560446374
-0.8626008886133499
-0.7011803081527558
-0.606178980501578
-0.5069485931446381
-0.3072502961123604
-0.22725505375957672
-0.8324730712757359
-0.6551963434502039
-0.5570746752837189
-0.38474909534611434
-0.20770764269477157
-0.6974343228280447
-0.6060929622051906
-0.51386182808014
-0.3143746342219467
-0.5417959955774315
-0.6170349800275085
-0.5184562934027784
-0.6747666306626473
-0.5077110147121819
-0.5629863298202107
-0.8441044126885716
-0.9010068449948602
-0.6260765197163564
-0.5656118810775155
-0.5616559804753044
-0.39542581432763985
-0.9021369279188854
-0.8227843079829821
-0.7550976985656902
-0.5178214108476554
-0.5404003468898532
-0.6094672271328979
-0.574692120771803
-0.500512567134369
-0.5865713713800749
-0.7474903962915781
-0.7597378830196709
-0.7668240080595171
-0.6132723298265407
-0.7205304290207617
-0.6932501042638042
-0.5044620436453814
-0.5155775451252858
-0.4156731733953584
-0.6180214321554051
-0.7389060785119174
-0.6133343870279245
-0.4813927216887182
-0.6563583217981073
-0.6675184927056684
-0.4929799967566319
-0.6132767269683821
-0.4825794969819893
-0.7741960708135277
-0.8474235390383701
-0.6629048870112864
-0.5747590059243244
-0.44099359412919964
-0.24381229744326502
-0.7070051088964205
-0.7441651641368893
-0.6882010488309844
-0.5386900006922665
-0.29029831999999983
-0.5799464903350362
-0.660357997512707
-0.6634649910834782
-0.45518829613556583
-0.4621270176630026
-0.6297628652148574
-0.6384676395858085
-0.6428169575534003
-0.43745774667582976
-0.4724812812564576
-0.721142887855298
-0.7794541000200234
-0.7314043423167115
-0.605467273908824
-0.597585373093615
-0.4992520551243374
-0.7572308204174424
-0.6484642438742813
-0.7082144555382079
-0.5934462832421161
-0.5613774697950507
-0.6424309622271539
-0.5809246134042294
-0.529019813311225
-0.6396131487056388
-0.6416675459940251
-0.6185734210874047
-0.6379677596551676
-0.6940385185312491
-0.5887019660673691
-0.485067721410406
-0.4889755929322621
-0.668498215673385
-0.7009509653095645
-0.5285882155514867
-0.6379668626575736
-0.48120017496685275
-0.5662916778639107
-0.715738244720381
-0.7322170473692858
-0.6938970981642574
-0.5901068375124902
-0.3524545554866707
-0.47790800001068123
-0.6324122365440009
-0.7549826938793357
-0.663009143018014
-0.4650420000000007
-0.4035193763946366
-0.5869961225236007
-0.7021356536940272
-0.5706206174721888
-0.3772519700680253
-0.5727038934294147
-0.6296176427811467
-0.5639167541746072
-0.4206215598229272
-0.45962817364341085
-0.5804980000000001
-0.5278857928579815
-0.6538332261868404
-0.655260304829225
-0.6678899148261391
-0.6572509780187151
-0.4974759217558437
-0.5272896350999504
-0.5638743536646919
-0.5724238361185406
-0.6940996373505549
-0.5470166418007751
-0.4984295064707987
-0.56472799034727
-0.5440197135416669
-0.6328300861748294
-0.5692907806925062
-0.45115745441663463
-0.5002209883877388
-0.61139864
-0.4693989212647242
-0.4536166666666662
-0.44305643850229326
-0.6379182122282927
-0.740779924728726
-0.6809294350585042
-0.5565722917958266
-0.39989760487704085
-0.4157429058988272
-0.6939461788219744
-0.6805702299062344
-0.5751366920438103
-0.376577520148791
-0.45189360633217573
-0.6827930078486196
-0.5587312967888387
-0.3709399442033478
-0.4973056764638402
-0.600515575028953
-0.5126185711850021
-0.4086800196382426
-0.44532
-0.37894050592101136
-0.4351752803207331
-0.5677316300551603
-0.6746498401724884
-0.7500512567515508
-0.4190809895833328
-0.4288387533271168
-0.4812095318838187
-0.6663537639845821
-0.4607155815516293
-0.42503588332579967
-0.49502019218846804
-0.501709066666666
-0.4439383604539315
-0.43449824137218424
-0.2955950022403458
-0.44462767776774764
-0.6837404968973044
-0.6693590131189514