<?xml version="1.0" encoding="UTF-8"?>
<VTKFile type="UnstructuredGrid" version="0.1" byte_order="LittleEndian">
<UnstructuredGrid>
<Piece NumberOfPoints="672" NumberOfCells="2649">
<PointData>
<DataArray type="Float64" Name="u" Format="ascii">
0.7294114927494777
0.6659719820117115
0.8761959874848948
0.6353400798629941
0.4393146080176334
0.4996381980888211
0.7537559498183566
0.6377015140697309
0.822517580027258
0.9488261509756896
0.8139636085486811
0.9855136394699966
0.7401318644859084
0.7961631710051692
0.7494389802524032
0.96300902111818
0.8377976519589493
0.9667887465263918
1.2548848214258044
0.7860896510721783
0.8792186202595607
1.3361092442513025
1.1651152880895572
0.4996699558400204
0.3173276354136492
0.18361504724396208
0.26487532796663216
0.46883057862859884
0.4754893112535092
0.6962302026842496
0.06917501243835678
-0.08937020718127184
0.3511273048898352
-0.14812054642958536
0.20027655361552976
-0.44067292274713726
0.2348155607371129
0.7400121844726528
0.7540747462551239
0.8419366500902128
0.2142304004472883
0.7601937082701975
0.838732945498441
0.6467491279298199
0.564843274106856
0.4081318652881965
0.18702725152297187
-0.13862708088705308
-0.2049814636507421
-0.6610685846651406
1.0656600170182025
0.5684462155778633
0.6974887558189443
1.0135976708223684
0.7162423881238733
0.39408987848082694
-5.761819309296078E-4
-0.42281405407145023
0.38808613001864
-0.4157545626435493
-0.09707112258659525
-0.7768140510893682
-0.43952738624898186
0.13620875578633068
0.917222664347452
0.7342198824424346
0.745036724254406
0.44434095413272706
0.7519857166220677
0.8366520642325296
0.5937860168980061
0.8007664166501702
0.6488973444071539
0.7805012368657437
0.44079269146072886
0.5587985432170043
0.4488163005994986
0.44860305494325653
0.6396306046965985
0.6403198858646741
0.6677037490189445
0.8406542927391996
1.3335647474952121
1.0969307214327946
0.6276986693557072
0.9051330501256689
0.8128278255707225
1.6096279473433908
1.60543643918445
0.36761712474119307
0.47457053571362623
0.43378268954635096
0.08209116583107498
0.04909100610503659
-0.23969059031409226
0.5627208511293108
-0.5586177011576701
-0.23606531562836958
-0.9413166410769177
-0.6612783085225858
0.5047784158558849
0.622225968331593
1.1285002348428692
1.121925832156248
1.268946519069139
1.1196515642664513
0.9905976955603413
1.2348704700662088
0.349426620343729
0.4194311209399372
0.6677534071819128
0.40697636610706195
0.47701406765498205
0.5874916121438164
0.44463572343503555
0.23785966851714813
0.3649738087489412
0.2720133394793223
0.20876479507610288
0.10029103772626594
1.7090464542310253
2.284291556897004
1.1142642850126452
1.9785196733223456
0.6406329541315589
-0.4049710267721461
0.08513212279440062
0.981974920113151
0.22270960499862305
1.1074503145191499
1.0884183562158876
0.775077730368071
0.35097600304581705
0.2242476697010438
0.10333321539956948
0.06330447535997048
0.09605768015008992
0.06798347995200449
0.7039156350888633
1.8268187745082154
2.4915655319382437
1.1015089253583203
1.9591713892994493
0.11503995582270397
0.18426333202751824
0.3309717960851655
5.985754600188538E-4
0.19262856262540232
-0.07781560662453096
0.9472953208955831
1.9685162810539156
1.3991513512075395
0.3199850578485331
0.7033341948577546
0.1758866224759737
0.9794760852692177
0.6311816950757364
0.6384519777808447
0.6251780916621462
0.42004713180567327
0.6657714030166703
0.48395052415329903
0.643176401978074
0.7836659038577093
0.6829883197376495
0.20939663541704606
0.6324444409767194
0.7496659593556138
0.5987842161554411
0.18511327011623147
0.19668734428241574
0.689475537421996
0.10619694964884054
0.4095080426322197
0.4943030889072802
0.6225100609561163
0.6451320183964845
0.29439167294507623
0.13476916236920558
-0.07035218149046851
0.6033393842662557
0.6009211031267104
0.6542130924666986
0.5715115279917845
0.17667969044695872
0.4132074466778773
0.5185554178127872
0.21796615463869842
0.41465756996184555
0.15680624035044388
0.685586503796806
0.5384823881790307
0.5144404969724955
0.6550046746328285
0.455362087096389
0.743357950447473
0.5994425571022587
0.6063499862041258
0.4903204698280742
0.12020314397053247
0.666477284007115
0.15056402873655553
0.17102777867560848
0.38366127958047885
0.4426379592178253
0.43485152325750864
0.45412304977783424
0.5088784386042918
0.6376869851729995
0.47697743018685546
0.6124730011712974
0.43550823256864263
0.38927869729493725
0.7921110305409023
0.5757291433052214
0.7075152129028495
0.7442652568419189
0.5104055318081346
0.44406715743573527
0.7279736109142262
0.33896690705544097
0.48738565548398244
0.3208782945024167
0.2836121131997355
0.47060753553207496
0.8246627945412984
0.8305234167644762
0.7969469001972261
0.5869411117262243
0.5304604008658201
0.5344074551330091
0.9157336577947193
0.6757000237777221
0.8162681435766554
0.7298523733551652
0.34820579826425174
0.4568228267524434
0.24922225179710855
0.10289720864271505
0.8801559690241695
0.762452475083324
0.8853343062501656
0.8902093084777843
0.8169525978402585
0.9963802794120007
0.8420580400894702
0.7369726891118323
0.7709300287795045
0.7179081756185689
0.37484917603192547
0.5293998574557216
0.6341038721579262
0.2936896402570136
0.49254283891037176
0.11244096926989126
0.10933996391731184
0.6130338690622806
0.14392731465897307
-0.2963109641722383
0.11556970636150331
0.2866593719601862
0.7225310901205777
0.5040212254730675
0.8736210064009714
0.8045753143946998
0.43022217342882396
-0.03291958263971823
-0.04455858943127832
0.441740881088035
0.37621998887366626
0.494502718333246
0.5686007903722697
0.5190319324070908
0.630638686402648
0.5589820138256281
0.579636578207422
0.6870786899343653
-0.006321119930000883
0.34250916515237767
0.5981191535278717
0.8517747962843862
0.8855033721051664
1.6758754605535555
1.0231783741872615
0.44653707271856447
0.24439550652571992
0.10536317838458721
0.08762778329936181
-0.02340307015409373
-0.0021714113858815292
0.2961696583810723
0.14675111758754997
1.1819346231973098
0.28005734642455143
0.323321335738554
0.6808632205407327
0.5237726497252695
0.7978344899522133
1.6479674840759773
1.340136231172504
0.5373967555644842
1.2084475245946829
1.4489386089991863
0.9024360678212915
1.9281439096663218
1.4026657582817117
0.40270010058440403
0.4033504562221993
0.4657746162179325
0.45942442155734753
0.2753698673581202
0.23623159217294612
0.15671225565634608
-0.08145022801646484
0.3867275202397366
0.552626748157907
1.1006267320800551
0.41631376937022463
0.4755098177464242
0.5445736319651266
1.2487615865356996
0.785698709862274
0.8737564243684427
0.384380206802683
0.44849060292934156
0.3913323870823619
0.5021095649477418
0.6298059931878117
0.30893580074155225
0.9223221882002849
0.315375167408187
0.3877666433133125
0.23609619047622715
0.1860209880053804
0.045681445220394364
0.40881873816327446
0.34340226102881405
0.568103776873463
0.4864511681011795
0.36339752626354554
-0.05639229438009974
0.052629568139301225
-0.39254320037106094
-0.036946071334473814
-0.667662751588656
0.1798230161040202
-0.1758009950257233
-0.1337147166916494
1.5224025342086411
1.4898249041725722
1.0348290947276688
1.6087313758342359
1.323104148843858
0.8311867616063073
0.9004223888003711
0.7728887055334196
0.7573269121104477
0.8471880096243712
1.0120340292693666
0.4638913988342248
0.5353989476093547
0.45949291282668187
0.5595923795111486
0.4817165746006146
0.5084879004236066
0.6895422089651921
0.6415451085507946
0.617144389290098
0.6871675272446174
1.0968135607148748
1.3472901429111226
0.9145520626925415
0.8869140527854416
0.4287259720234928
0.40017199581643165
0.6054877790911475
0.7060410978656861
0.5972623479330995
0.9209023684960725
0.5155952525243866
0.5763849914574225
1.3426326259485903
1.4325118821249985
1.0496906313685541
1.145283414854651
0.7633059967618384
0.5565895209794539
0.5376646595069515
0.982002017034148
-0.06817418217325265
-0.054595687832840085
0.49820829840736447
0.43737078076134467
0.37569583701489095
0.3979141744183013
0.48999599335665855
0.5706357686413688
0.5121577692707716
0.5260861413047798
0.3790808627325657
0.4173935581673023
0.43870674928536485
0.5275333829934334
0.3244027798401868
0.39254691464752517
0.3393948485803318
-0.02959718154792573
0.25370769680578054
-0.18149314769283198
-0.003742845703534384
0.22049496928659632
0.2827363064029583
0.09065668450052843
0.20493565828539076
0.0879878049070142
-0.26510230402291096
0.440350971332193
-0.19061288768317405
0.0466581469038303
0.3621852906814791
0.4364935315154958
0.5090965829541558
0.5843373203533349
0.41795045273894377
0.5597867572180667
0.5595844218133618
0.4376861173812844
0.536049849909937
0.44013773049099836
0.279897915717212
0.5653998305551281
0.4217844220372667
0.665587756665733
0.545750283029357
0.6059523563999993
0.8767897819487195
0.6428554081018002
0.5944293129646424
0.9346551285759305
0.9357399993570501
0.7132511354791651
0.7669334020255113
0.7025145582558797
0.6548325686588007
0.633976031265547
0.6586922213893952
0.7631480891940142
0.6044615437484866
0.8935572989238091
0.7459580798926165
0.6237558393120758
1.0671367014861997
1.184836396501668
1.001126547768552
1.234539272218912
1.028882954399453
1.1213627425184562
0.5166931279497681
0.48252675851705507
0.8973288220509341
0.5120019227682476
0.8071615878971878
0.7231358659282736
0.4559763650198541
0.5929745956340503
0.5885963392992344
0.5678157213693112
0.44349129708982205
0.35172984682439873
0.8323147131601905
0.3519183234813142
0.5284473157940338
0.7822823742387045
0.4491509850197632
0.45152846628870746
0.13339133537855372
0.12576445370532574
0.40093550127417377
0.4096317501029959
0.1360629651595158
0.24733411758479995
0.4491497398495747
0.39041207330136296
0.3370308674672239
0.4337924689723452
0.3238497086608154
0.3137472341825767
0.4588906430781848
0.40694368424546135
0.5221744605668796
0.41730643920623767
0.23767955279205594
0.1270555332358842
-0.11919946651212694
-0.1571447650747255
0.1631758223212318
-0.2719974111813191
-0.059527895648060505
0.059231580334801574
0.6035000416035069
0.6684772589825273
0.6047749504049706
0.885140185930144
0.21881771700886168
0.2963626327797107
0.6626737569694572
0.5606175775664664
0.4743662379202051
0.49455043651429254
0.650030904221902
0.7661920868122639
0.605034996807385
0.4248956590623816
0.20029559123976706
0.2802140742717438
0.7985797011750325
0.2456277295324209
0.577937046598663
0.5574927571194859
0.994160741472826
0.6509679682937143
0.7011076046743789
0.8915998118790933
1.0039843868720373
0.6345452944313744
0.5876847114256172
0.6464848796107501
0.6870196805234138
0.6966791832190699
0.7385526204288874
0.5956477778139524
0.38775017562897746
0.7688715971770107
0.8010443114541301
1.0414134713910093
0.4842982438185413
0.6245523281593575
1.0008689344295059
1.1097802827144339
1.1136755687640478
0.8293485253785166
0.3559995122044652
0.17511445501677295
0.296263457114782
-0.027698442603943975
0.8463057939357904
0.6445041809187976
0.6107225779538903
0.6386549852753494
0.3834717883007641
0.4142018979095816
0.32131553130517027
0.11572832666746226
0.7085075048482117
0.9348174729457719
0.8225094124118986
0.7676030176571124
0.15492892914252118
0.8708810497273108
0.4685647365789004
0.4524306919878016
0.1026323461719342
0.24219774691327103
0.08890094740299624
0.07179866922065427
0.26127583368755924
0.6124232254926197
0.44163232098024535
0.5008196441580122
0.4738858666452711
0.49410973069691627
0.45361988982195517
0.4465822912213851
0.5063889777186482
0.6838947927318418
0.6577664766083509
0.4756440304931244
0.46666883813992915
0.11410209473990042
0.09498471039009136
0.1474918280439517
0.2192863013500075
0.4842584513639733
0.6504488129757237
1.1593695338180916
1.177245840361772
0.8770207028371454
0.9448606987547984
0.3280236911696938
0.4063877763400583
0.5076659893312458
0.44480015986356053
0.6358541175271276
0.7649729673395009
0.7886173320705254
0.7256295272479943
0.6289415741257063
0.1487767128480331
0.7007402896535813
0.25840021661090595
0.3192740410078736
0.6182542156546279
0.27861690999148075
0.13067581909381734
1.120151481367552
1.1763130047041666
1.1301300018073008
1.2410149534038413
1.2976720023380341
0.8311151755406433
0.6886501392633547
0.4060974994379086
0.4709283339682094
0.5660317185908637
0.5453025142180312
0.5963960662113451
0.6852897062669624
0.8986977548317652
0.3952600409559724
0.37526881089170755
0.23288340101417576
0.6710732029422685
0.3277467854560588
0.7474655154311208
0.4380966038823003
0.25666089349311033
0.5936825975530197
0.17462326240646361
0.6405123163154461
0.14527695547582475
0.6268400958538697
0.8243676468309706
0.32259600317602083
0.4461650063333981
0.5529137974207695
0.9373835026381615
0.19420989662165064
0.5874907744418613
0.42305751020568666
1.0915104654656853
1.0651005859154374
0.6110999002890997
0.5361898071407795
0.5604884824855526
0.47775516845525884
0.2878724890273254
0.6435095909956804
0.7090287552480905
0.6212552369223422
0.5561749247336183
0.38593501923373147
0.4722494364106293
0.6364579908231712
1.1331213549835564
0.8491100383103932
0.6039798936190853
0.6429961416083074
0.39721932993808023
0.2803829648940476
0.5338786898709821
0.29874609947523995
0.7354752593350911
0.623948676546876
0.27173907351905513
0.3415966825984112
0.6863174118501706
0.7331062774527353
0.2931347383940635
0.5019137071055403
0.34738548804885566
0.5185254987114926
0.6889988853412947
</DataArray>
<DataArray type="Float64" Name="f" Format="ascii">
-0.4920733590844852
-0.4465795331551157
-0.424993781676616
-0.40633680947261835
-0.5011905197424016
-0.4590064625861299
-0.4644856419572213
-0.50385981013977
-0.4193894244623558
-0.6084566316673446
-0.5647135740782511
-0.5585899526537698
-0.4817288389480866
-0.5038161771462644
-0.47173240197574623
-0.3890849568979096
-0.4995459364717182
-0.5395084002301754
-0.48556743284044496
-0.4054747503954092
-0.4572748961352735
-0.4776157291662457
-0.3525195923804429
-0.5236076622679322
-0.613932157470552
-0.48647130503203867
-0.49939417143216314
-0.5067908870140999
-0.4706604456100212
-0.5302511263144841
-0.5050668234336899
-0.502831034543176
-0.509852652895149
-0.5497433075130889
-0.43948421194669673
-0.6139321574705521
-0.4835263313311776
-0.7208268251182125
-0.5676720379637652
-0.5734868599254116
-0.5922435924939681
-0.5990831274872975
-0.47805799518974895
-0.5915067179692298
-0.5159841590413786
-0.46456106619703535
-0.5086708077084768
-0.5865887015663417
-0.5292018493515096
-0.6162299952769512
-0.4713530718633799
-0.48458682627275645
-0.5398855066482647
-0.5670256000000001
-0.5261095370410194
-0.540269679063841
-0.6139321574705521
-0.6139321574705523
-0.5303142661044045
-0.6139321574705522
-0.5428077288280937
-0.6139321574705523
-0.6139321574705521
-0.5279784761596356
-0.5887309029980465
-0.655569589383566
-0.55244761774165
-0.5670256
-0.6405627127401842
-0.5534369068991649
-0.5746822746341442
-0.49516245363705896
-0.3163564354952812
-0.515586818482822
-0.5775241626647998
-0.5643806892502524
-0.6412885998796242
-0.4457497441270084
-0.55250433558615
-0.6394997250359938
-0.47648323004056065
-0.593606352202393
-0.6674818253968254
-0.4232541408267956
-0.5677612946509686
-0.5746757599120498
-0.41058835623550255
-0.5763926181520241
-0.4813256924155008
-0.5529464289389024
-0.5875962004706726
-0.4310972887099169
-0.5765197071881952
-0.6192233786022696
-0.5355179932513988
-0.4197467059595852
-0.6596259029413395
-0.48455587368555997
-0.5814902740967273
-0.6557037490183385
-0.37062486541687617
-0.3898719590824551
-0.5443224274590248
-0.4383002930847511
-0.4970869330884667
-0.41762445802326426
-0.5019101012177412
-0.3898719590824551
-0.47339366914076425
-0.5456490754513559
-0.4788658171248241
-0.2906414902223007
-0.4480123927331348
-0.4743613033012603
-0.5183487282450183
-0.35931368421148907
-0.5275856361886041
-0.4705579796238228
-0.506668938472176
-0.6194585213319596
-0.5020109369122399
-0.6043829083150446
-0.5663079954669725
-0.533371036440953
-0.589273464600906
-0.5287037369791666
-0.5593099673632332
-0.37032707794329894
-0.5046436727978508
-0.37092265289045295
-0.4650569114845648
-0.5287037369791666
-0.5760956870922551
-0.592063607731211
-0.5233622103044208
-0.5687455284183861
-0.47232308772442433
-0.5149129693395151
-0.5233622103044208
-0.5723702320539034
-0.5047129276106773
-0.6225323210904374
-0.49017621761919694
-0.5680528407161012
-0.5366133334522482
-0.5668808362554789
-0.6524335044046703
-0.45458
-0.45458
-0.6506137994418609
-0.45458
-0.45458
-0.6212007134157319
-0.45458
-0.45458
-0.45458
-0.544050196051287
-0.5411175802947426
-0.5237430298429113
-0.6522549659541891
-0.6014927216367018
-0.5636031283050951
-0.4036613342663182
-0.5481988159627588
-0.5652224987527539
-0.5717182557342767
-0.6267596027000898
-0.5971907894224523
-0.6053380681959081
-0.5449403970122304
-0.538729552894669
-0.6185770795651266
-0.5511595317082535
-0.6349078871058432
-0.6148767209698738
-0.5081172424895363
-0.45019795234497223
-0.5746949167674719
-0.5579208166649058
-0.527128403283701
-0.5269417839129734
-0.5682296823879789
-0.6023693661031037
-0.46908146352854635
-0.5672391274286052
-0.5426192727845841
-0.5771903667096441
-0.5981422212744734
-0.5500449845224064
-0.5586533274966167
-0.5337642142754173
-0.5964941964717146
-0.5066135079163426
-0.53356505945948
-0.5485934314941103
-0.5053565458631029
-0.5397127689402414
-0.5196074079404526
-0.45601457483747926
-0.6005613932936013
-0.5298611051605652
-0.6987266343073802
-0.6037628904605027
-0.636776239962064
-0.39833260380438196
-0.5064327436651859
-0.4351863647139137
-0.3941957581457567
-0.41265752882645
-0.40045353513748877
-0.40045459236188097
-0.7066328625397141
-0.49366645854568286
-0.40228236951497465
-0.6342812484004783
-0.5123216620362888
-0.5075376756501829
-0.5523527829516766
-0.5434021060946517
-0.4579105019720651
-0.5659978280395065
-0.5104394713498089
-0.5456456551864121
-0.6244460278184998
-0.8585767538205298
-0.48465803310180283
-0.5427449878752084
-0.5567707901932613
-0.5531302457157891
-0.5142322845600306
-0.4952522036276728
-0.39646575591662825
-0.46396045767375865
-0.5236788315779279
-0.4849021392016736
-0.5730470325960414
-0.4952161387324286
-0.4599551906442277
-0.45738466343812895
-0.36451447541225035
-0.7026238312456387
-0.6212408388550498
-0.5016997543919998
-0.5275527541109564
-0.4717675583144424
-0.4423216406190465
-0.44361211542315365
-0.5441626241131579
-0.5143522737596881
-0.4756265952425186
-0.6011824036063387
-0.49556374169982026
-0.5833363352988759
-0.47989740273494774
-0.43741905337414877
-0.7013031008374976
-0.5251868946920821
-0.7128655433503345
-0.5209458236809351
-0.47989675698424944
-0.5260432752455438
-0.44215397041904964
-0.5272050936588004
-0.4362416422736508
-0.506164018757364
-0.411248961071622
-0.5274383822358352
-0.4350002744034475
-0.6054997056814321
-0.6262866190910826
-0.5741115012537858
-0.47085031133019023
-0.5382018123637172
-0.6754346764498552
-0.5549066891942233
-0.6931130710233955
-0.57000400384411
-0.6050040916111862
-0.5529844096331249
-0.4987772847466471
-0.6156331686383408
-0.6630643339145886
-0.5972870394631923
-0.609172011568529
-0.48788548586083996
-0.42455432033869356
-0.6461364877710918
-0.5976032545361426
-0.5520546557910124
-0.5171583848660973
-0.6084718200310865
-0.5472343898209733
-0.6006111633099338
-0.5445999855057773
-0.5262947260261163
-0.62836030761699
-0.514457965088144
-0.5479367102875335
-0.6027093331687378
-0.5934570440276866
-0.5741391520010631
-0.6439214186305509
-0.5327297938455364
-0.6299526899410706
-0.5719433443488552
-0.6036974962181644
-0.6140725565030928
-0.5125185615410613
-0.5035255930608954
-0.5386590088148002
-0.6192750843171081
-0.5683533261351653
-0.5384287271504037
-0.5439205824435537
-0.5772393392857874
-0.5691385238694108
-0.5302174605764884
-0.6037257778674481
-0.5158829331496063
-0.4540997929952772
-0.4316363578078424
-0.5178861050641087
-0.44318067636210395
-0.4529837708384464
-0.5128263519407588
-0.4834035686802185
-0.4622190112941685
-0.41469191834007474
-0.4421712671146531
-0.5051388462451173
-0.6471480833711868
-0.6829989785502579
-0.3824242527725703
-0.5405664432355448
-0.4511828060056572
-0.5008078915907977
-0.615295225090776
-0.588403892463498
-0.5165578248525321
-0.539243179093718
-0.5204881470406643
-0.5578935251891609
-0.5426594930424028
-0.6242131462815516
-0.5155300118208717
-0.5843864897229915
-0.6073154096572692
-0.5891289577501303
-0.49623761261915267
-0.5179387807095067
-0.6084900769204439
-0.4682079999999999
-0.49778839990823365
-0.4917280322372295
-0.48413997839499945
-0.5261850957182538
-0.4909786779450193
-0.5538245730714147
-0.4820934593924364
-0.5336129943947896
-0.43870469490018216
-0.5780915094276284
-0.5430481623263889
-0.5046652067731772
-0.521196543905162
-0.572422932720786
-0.682624969004342
-0.5626417274453266
-0.4886316722596328
-0.5021245269255968
-0.49930701775496256
-0.4710345787049356
-0.5716993191732197
-0.7301844856839831
-0.835451292315342
-0.5680322902058814
-0.6354594496492166
-0.6072740852239632
-0.5371075176573222
-0.5735349999999997
-0.4791246787168869
-0.6362327947748624
-0.4059765314213286
-0.525648204294182
-0.5690101725978495
-0.535069582977723
-0.528766228890303
-0.6078818801405221
-0.47695666184550045
-0.6960643057476272
-0.5568965588175521
-0.4770071484002053
-0.32481921000867553
-0.6036360909558443
-0.5231939186455521
-0.5311813112327286
-0.6037896920582747
-0.5302149644803
-0.3514695359805752
-0.558121529610957
-0.62287810820143
-0.5920181218536319
-0.4230769052363544
-0.5576874746848518
-0.6813909704579989
-0.5847529934291127
-0.5037257262365548
-0.5300572370945814
-0.6070275867870412
-0.5234069694853005
-0.6368037324102892
-0.6021158045117473
-0.5973701959423227
-0.4966237135607353
-0.528143306825258
-0.5767355604463723
-0.56884887453445
-0.5792298149205398
-0.5707843060544648
-0.5818086422213539
-0.5443424100446989
-0.5476874030171713
-0.48721935216050904
-0.5828487858719883
-0.567222357634442
-0.5107578948066155
-0.6179139920438106
-0.5166529034572632
-0.5376891476928465
-0.38362397423666644
-0.46710703564382416
-0.5440582284978882
-0.45314434744387033
-0.44196042114640416
-0.43058566602203896
-0.583831648013763
-0.5919728381897096
-0.49053651375892754
-0.37891718543645997
-0.5282881742109719
-0.48784247282319626
-0.5222349392455802
-0.5119060451022365
-0.45158783719527473
-0.4929296825701648
-0.5344768792183463
-0.404635206829474
-0.4589507539612435
-0.554376241475511
-0.3664730940137149
-0.6519870099242087
-0.46381766102324556
-0.6358222293901425
-0.5542684345875568
-0.5521072759020624
-0.513745411213126
-0.5123838203617571
-0.6861589781361955
-0.5836948866899618
-0.512665534383492
-0.6416496470669316
-0.5718886199078845
-0.5656623534890604
-0.5881847831230007
-0.6120092175365681
-0.5622248925339713
-0.5291036354512874
-0.5443406091373575
-0.6986507648552447
-0.5202144434108524
-0.3158267818368197
-0.5543411468354195
-0.5073178648126248
-0.4727747914422474
-0.4406035699113541
-0.5830976598497718
-0.6710011018805542
-0.5373488415309476
-0.4470262026158284
-0.5185069185032612
-0.6490235389172649
-0.5267355386181014
-0.47197338388579635
-0.6857864534064165
-0.3565162570832649
-0.5879546495825034
-0.5608269236685649
-0.4779940213900354
-0.5148570049080659
-0.4333781832015073
-0.45068026172647346
-0.6152844947303163
-0.5653886796702584
-0.4591163153867798
-0.5467133143719834
-0.6050644886996623
-0.6235664168487606
-0.581318425325655
-0.5324984339739612
-0.4869828464507421
-0.41619882495989313
-0.4055284181854505
-0.42896199107013533
-0.6830454183253619
-0.7200585121367591
-0.4623212470111077
-0.4952939480113033
-0.48895967539311985
-0.5191315040135518
-0.37414092325594617
-0.3732606270371069
-0.45173209998463787
-0.5093243250698338
-0.510884361438314
-0.5540395916949149
-0.43843457219495724
-0.42926607393051197
-0.6108087135386494
-0.6189459365411923
-0.4706480351421195
-0.4257046372331636
-0.5899670414853232
-0.5891242351549691
-0.5882757286357175
-0.6025041187319446
-0.5109911028646251
-0.5771453186308458
-0.43934838638046797
-0.5203883344264979
-0.5269389136136657
-0.5931838262721348
-0.5514034874605197
-0.5087374562149237
-0.4479804056847551
-0.5553612461246433
-0.6616206112585412
-0.5041481493299215
-0.5599660666518317
-0.5226476945475017
-0.5677088342769113
-0.5138437871461062
-0.5008660643971183
-0.5703040887039349
-0.6065301243279314
-0.5729472422481036
-0.45622348904387194
-0.5883212453868158
-0.6001423159251831
-0.49691044416104446
-0.624739365822684
-0.5190415592188825
-0.531563380039496
-0.5863943666924315
-0.5601708304615726
-0.46368241113866493
-0.5757571247584843
-0.5967533033820249
-0.6196386153682204
-0.5396092014097027
-0.48117314540616374
-0.4400344671388534
-0.5778429826410417
-0.5487445292378385
-0.5495123874095055
-0.5502751507080826
-0.5947200527553527
-0.49342960508696554
-0.5441090906598203
-0.417059715386718
-0.3327775791382909
-0.3937421133769394
-0.424657245720443
-0.5896882301301303
-0.5346516917038745
-0.4965504025154731
-0.528135576353937
-0.4421071636701797
-0.5037418711025269
-0.5199298349050347
-0.520421642435389
-0.4837039821050072
-0.5033981637735715
-0.49753249302325553
-0.48831805076235024
-0.4823446718164464
-0.5249429789977287
-0.5277437228279813
-0.44393045205781334
-0.49194962492604666
-0.44202953093516456
-0.5391632910557903
-0.5298780845561106
-0.5525891541320613
-0.6325419113162157
-0.5213964194557114
-0.4881662788043569
-0.6058278615877926
-0.6286243229974159
-0.48746908536037087
-0.4457353695809463
-0.44831293567013414
-0.4920590876283854
-0.4965113528741849
-0.3572136177634032
-0.4410484038024381
-0.5151977939328686
-0.5593750973798518
-0.5384647355706292
-0.6092723089863429
-0.5599571562899629
-0.34981346873907804
-0.6050291429594777
-0.5807045793459117
-0.5381497567281953
-0.5512660526963908
-0.5117097253094284
-0.5732812977581926
-0.48565976287672974
-0.5485921319339766
-0.5955987045366219
-0.675598682579045
-0.4670700213906117
-0.5735416298419017
-0.47076232922037686
-0.5564644863428604
-0.5820413730187416
-0.433615351197558
-0.5543565436669184
-0.46922415578757953
-0.6139321574705522
-0.5534679958081639
-0.39667244034452936
-0.5155728174281867
-0.6175381188860377
-0.5962066270724427
-0.5127692377781762
-0.6000423988765272
-0.601082500563068
-0.4710485061711633
-0.5952378053145544
-0.45458
-0.6006324840735268
-0.5925612680907423
-0.5787692758044636
-0.5430127168867548
-0.5218676274269479
-0.4980675487818895
-0.4738633381351907
-0.4895905221968696
-0.47656408773815895
-0.5066430132025824
-0.6267593012961593
-0.5358157135723972
-0.44149689306980294
-0.5163461747315051
-0.5030091590676484
-0.3981159772442964
-0.6166362565563689
-0.5987921968368556
-0.42244877834756434
-0.5800536942068137
-0.49108352176629205
-0.4810990865804894
-0.6204622061169083
-0.5322263103440918
-0.5106908204087565
-0.5350262499878071
-0.5959797237949227
-0.590168548748247
-0.4257341355828222
-0.4589215695462963
-0.4766727219696615
</DataArray>
</PointData>
<CellData/>
<Points>
<DataArray type="Float64" NumberOfComponents="3" Format="ascii">
0.051026113098727434 0.08600177986450669 0.29999999999999993
0.04227883291249092 0.047939224310635895 0.3
0.0720391719122123 0.06935674235575601 0.2578594489271271
0.0860017798645065 0.05102611309872777 0.29999999999999993
0.1 0 0.3
0.053164023606176045 0.013943122276674463 0.3
0.0933012538660835 0.03598438587799763 0.2608244526866328
0.07167184254219708 0.0032192138312489875 0.25948857686412263
0.04638482881804534 0.037015897754092045 0.2599806508510354
0.037013369917786594 0.09289784953016453 0.2613756306428428
0 0.1 0.3
0 0.10000000000000002 0.24
0.015967628792777952 0.06205739579696616 0.3
0.0900257541414851 0.043535773695397614 0.2165491991335119
0.052540912315940456 0.08508497242761882 0.20840741109977517
-4.974679776301841E-4 0.045670612998757194 0.26416801933830164
-0.01276175732628658 0.06190746481407493 0.3
-0.051026113098727795 0.08600177986450647 0.2999999999999999
-0.03598438587799764 0.0933012538660835 0.2608244526866328
-0.03931430301398858 0.03769179248074707 0.3
-0.08600177986450669 0.05102611309872741 0.29999999999999993
-0.06935674235575601 0.07203917191221229 0.2578594489271271
-0.09289784953016453 0.0370133699177866 0.26137563064284275
-0.06243214200573856 0.012692146005555127 0.3
-0.1 0 0.3
0.08600177986450548 -0.05102611309872943 0.29999999999999993
0.058453283185157204 -0.02278808167319614 0.3
0.09289774606158197 -0.03701362960691413 0.2613753747279502
0.050042431218310555 -0.0295459582154997 0.25815270104161236
0.10000000000000002 0 0.24
0.04619450246111688 -0.04739064463759382 0.3
0.051026113098729654 -0.08600177986450536 0.3
0.06935654097514962 -0.07203936579372688 0.2578581990573389
0.02021751731938387 -0.06054059803436248 0.3
0.03598438587799806 -0.09330125386608334 0.2608186501391343
0 -0.1 0.3
0.0157403018785058 -0.06223916528955508 0.25995241852133005
0.053890359975504266 -0.011701271793405636 0.2163054020832249
0.10000000000000002 0 0.18
-0.010419645895973639 0.05958265605507741 0.2203764523416998
0 0.10000000000000002 0.18
-0.04353577369539764 0.09002575414148509 0.21654919913351192
0.022696481903450395 0.02913955796866975 0.2242037055498876
0.05489725004665383 0.018865110950033247 0.17061690892274955
0.0871018217960028 0.049125071397580364 0.1591806407171875
0.026167148076315705 0.04879282329614361 0.16802659032774095
0.04913265630104126 0.08709754350613884 0.13809616141512307
-0.011582967692963218 0.06343752975373772 0.16005389203456122
0 0.10000000000000002 0.11999999999999998
-0.04912507139758038 0.0871018217960028 0.1591806407171874
-0.03697447780442473 0.02388403693479061 0.24388370937437487
-0.047755558676214144 0.03969692768776785 0.20001665211424993
-0.08508497242761882 0.052540912315940436 0.20840741109977517
-0.10000000000000002 0 0.24
-0.037309222477960535 0.009167355227784845 0.27283092344195686
-0.09330125386608336 -0.035984385877998015 0.26082445268663423
-0.06250578181763533 -0.015810710485154103 0.3
-0.08600177986450536 -0.05102611309872964 0.29999999999999993
-0.05169513507612061 -0.03354986301692461 0.25679110081028167
-0.014295897018079345 -0.053611712980559056 0.3
-0.0370133699177869 -0.0928978495301644 0.26137563064284286
-0.05102611309872943 -0.08600177986450548 0.29999999999999993
-0.048830042333241515 -0.04296069944656612 0.3