<?xml version="1.0" encoding="UTF-8"?>
<VTKFile type="UnstructuredGrid" version="0.1" byte_order="LittleEndian">
<UnstructuredGrid>
<Piece NumberOfPoints="1536" NumberOfCells="6750">
<PointData>
<DataArray type="Float64" Name="f" Format="ascii">
-0.6300972978279289
-0.61163
-0.613953843649682
-0.6204234935003207
-0.635017884555769
-0.7042817987681839
-0.6218601984160043
-0.6954836197916667
-0.7373600331420801
-0.5686610726245026
-0.7144191723496591
-0.6775523765439985
-0.4622780201541729
-0.6663136000000001
-0.6149773839585009
-0.3811700071913217
-0.5778041227526349
-0.5842663059019235
-0.5836684590404332
-0.5964918144244682
-0.6003222300402938
-0.6313479232072369
-0.6932848966728661
-0.5842446897777712
-0.6440863041253535
-0.4748413772011147
-0.7630215679062607
-0.560807859468444
-0.31782873866501393
-0.7354547616170376
-0.4711125006462442
-0.21991354264604895
-0.6138433833851764
-0.4615146061050834
-0.5366125660673695
-0.5378532858669111
-0.5244750412399483
-0.572700530068196
-0.6220331970137157
-0.6191269872389329
-0.5489669441010393
-0.5895418778011339
-0.6965315541271582
-0.6358671698698077
-0.5453391896888752
-0.4394073767550078
-0.452957358575429
-0.2658767890886548
-0.6817776025757056
-0.6550314528606676
-0.34180183656267277
-0.1595222486777266
-0.5731399245335216
-0.6507382565604658
-0.3112555075716824
-0.4918029680279374
-0.5943571678971117
-0.49884540738555244
-0.5436682659640422
-0.5151968401806617
-0.5340991692421576
-0.6575217131638774
-0.6605306983255009
-0.5287632648668827
-0.5505721923938866
-0.5572627208859654
-0.5977221583300201
-0.5789464925095499
-0.4909364106466321
-0.4004487396722511
-0.6704151669868215
-0.4452399421368042
-0.5655556953875677
-0.35265689962419544
-0.2901198164083491
-0.23171104204372053
-0.23268529848729896
-0.4817968408852736
-0.68416666205361
-0.4145360641505113
-0.192590843962974
-0.4076558365082674
-0.6346097893600805
-0.4837362937310559
-0.39789704075346316
-0.5833362761803452
-0.5463857346354216
-0.5561813480473942
-0.5640428156230627
-0.5274507155605795
-0.661577113539619
-0.73623
-0.6482193082852835
-0.6043501290401047
-0.5007970659722225
-0.55419187082936
-0.5230602860729886
-0.5398243131607122
-0.4559588778502514
-0.3930836402149202
-0.5242214440076588
-0.5938433370953006
-0.44353156246914405
-0.3002700940726557
-0.35706933333333296
-0.5568201190071279
-0.29501000000000044
-0.5943705275045215
-0.31958833688566474
-0.23349896990437988
-0.3363417441620165
-0.24442189413944113
-0.2623736399210434
-0.5328835246981439
-0.6223109626351132
-0.26750213445760257
-0.27539344782388886
-0.4855382236444263
-0.6727366251137178
-0.39582417534722225
-0.4710042340828003
-0.6843233259002637
-0.5166783581318455
-0.6399656646644127
-0.5717894666666663
-0.5562066232692702
-0.7985563081681716
-0.6521499999999999
-0.5403973762787525
-0.6615862406384317
-0.46452589322916654
-0.6879092368752019
-0.47022129507746274
-0.45814436825790467
-0.5881863938601981
-0.5609233227325331
-0.5449827708602623
-0.5314932404061453
-0.40799710584709037
-0.34175016271415076
-0.45310471999999985
-0.46332434600202627
-0.5976388536460164
-0.4254189736558296
-0.2523653854084618
-0.31451548541825924
-0.41208101921884677
-0.4671420586975314
-0.25421199999999994
-0.6214248003242538
-0.30697673916703594
-0.2291893826869336
-0.34182848710549224
-0.2991783676527637
-0.2848340635999583
-0.6155586850618809
-0.5677825814642344
-0.2629820612561225
-0.32271708563816015
-0.6200301198625856
-0.6876463692957805
-0.43120433333333347
-0.6056273057684927
-0.7521944422344845
-0.5875262765034099
-0.7162194366251554
-0.65894064
-0.6442113490390577
-0.7829225851571707
-0.4272519601157252
-0.3793807412155176
-0.6531761282435725
-0.4191157388603122
-0.8250665416408348
-0.5175515735965698
-0.5121080051447687
-0.6816979357069392
-0.6794626950579915
-0.447879645370912
-0.5452423110560037
-0.4827915757567271
-0.5530743927892677
-0.5841038918738243
-0.606215067851484
-0.5359022364848519
-0.372016980579622
-0.33165453104364295
-0.414493296447393
-0.49674091011794974
-0.40508677735755566
-0.606405206199314
-0.4553180074680388
-0.2235108686660726
-0.3068038373493139
-0.4026418187119451
-0.4180055793329072
-0.24383472411655283
-0.6256629231515215
-0.37666681308687205
-0.2274325224875335
-0.37778096586911897
-0.3236021682763703
-0.3881418654765285
-0.6720943369919131
-0.5486413994974223
-0.29163008577792093
-0.4250953250737097
-0.7353883162223607
-0.7062127191812841
-0.48073345767166303
-0.7407498303530325
-0.8002411645987558
-0.6513914461173662
-0.7862297998907373
-0.716646162430254
-0.6908292190217502
-0.572687747915644
-0.2277908111180003
-0.24801872122719906
-0.8414484788179378
-0.5249492382143454
-0.3572882782268745
-0.4911721843106101
-0.5004579508118646
-0.7218750267138021
-0.7608420448439758
-0.4954829751088812
-0.5766071328373633
-0.5659871145986712
-0.6169913342615666
-0.6272173935328017
-0.483303468419887
-0.5554229586843925
-0.4425676905206935
-0.4412287412023938
-0.5001999888430378
-0.6485946001239924
-0.5711243678445953
-0.5677821922320058
-0.3634711116776319
-0.3052463418572129
-0.3900324908452164
-0.4512560774432997
-0.3306467622467531
-0.543703094776344
-0.5078517233472498
-0.2476251832822296
-0.30671614986567436
-0.42616788320997484
-0.3676590736667577
-0.16856269683819017
-0.5693353934839872
-0.47566779616804294
-0.253602192435002
-0.41447399554559444
-0.3293501541503689
-0.5091434794378996
-0.6438026438868456
-0.526510417156714
-0.23327259278868254
-0.5457520408242748
-0.7284581808720817
-0.688475193277288
-0.4070776156120309
-0.7584389896147591
-0.771112744968722
-0.5706064260726719
-0.7782274792524556
-0.6400496104153756
-0.6469572121653899
-0.3511287232326267
-0.179974
-0.2094272099944199
-0.3650645385902839
-0.2973476614583333
-0.673397480834513
-0.7655375058896466
-0.6192265626008703
-0.41059748037514804
-0.42119610477371344
-0.46954031990197004
-0.50863952
-0.5502102502844152
-0.6438924148481727
-0.6033006309843624
-0.4852564325344216
-0.5255749113453193
-0.47967620089220064
-0.5017867267901425
-0.5029263906370912
-0.5818771350830056
-0.4463411638292944
-0.4175220047002471
-0.38026756494369796
-0.3969506125101531
-0.4861364162792703
-0.6267775567265962
-0.41834777030209364
-0.5304440641116259
-0.4200818304105744
-0.28681536422483656
-0.3432306027526347
-0.4186961640853782
-0.18163389658007426
-0.3864334884092802
-0.5041748085009169
-0.33743659106126933
-0.2703102776606734
-0.430204554554997
-0.2157171732154923
-0.14259199999999997
-0.4486890999542337
-0.507369228002947
-0.3049532959426873
-0.36279833697380454
-0.3412925905323129
-0.5253163837321763
-0.5513883732502798
-0.37581691457712546
-0.1922576562713125
-0.5508544941026664
-0.6286777887632308
-0.5352870897752046
-0.29760492187500004
-0.6680876460242916
-0.6139474098991209
-0.4206682355858647
-0.6605762216277127
-0.5082594399999999
-0.5904654097954123
-0.31158699555665853
-0.27964000000000067
-0.29668887015107426
-0.49270196685942863
-0.2903809783448026
-0.29622104166666674
-0.32566445184544074
-0.3352598739408967
-0.48768491961458454
-0.6662721955135773
-0.6028100735689181
-0.5953102337352411
-0.5003374288162624
-0.3996416708633923
-0.40701906666666626
-0.43845927115960864
-0.46769442860095045
-0.4730272139229827
-0.536808154306602
-0.5231179433258385
-0.43302222222222353
-0.41035899799799397
-0.39133495354289555
-0.4412014896193029
-0.453714270627217
-0.4156820860975063
-0.5492377549080381
-0.3271944495716542
-0.3306671690952195
-0.3525099032062417
-0.4146789308449072
-0.49115022552106247
-0.47882630233410334
-0.20335335372031785
-0.37643753484816495
-0.49715399106489366
-0.3233810646139004
-0.2824818707501547
-0.3445156628869155
-0.0673014972120609
-0.15238288189485213
-0.3908081219942845
-0.44346148966004795
-0.23383026666666681
-0.35322949207353355
-0.08144067384534438
-0.248753333333334
-0.2266520090079451
-0.4538330555212385
-0.3546606581359779
-0.276024601501688
-0.3440711860389341
-0.4810735277349623
-0.34446780883751127
-0.19001214973374334
-0.2817066025998724
-0.49014124755789573
-0.4227104435920436
-0.32345601216100506
-0.32804842447916716
-0.48974133235018663
-0.425554056018351
-0.38574788799338716
-0.5422043799957227
-0.4540302666666667
-0.5827208762140939
-0.3489268452270244
-0.43425502996486776
-0.38826418596008877
-0.3862000346271776
-0.5898323806571606
-0.4145931701468673
-0.5042949921927758
-0.6637324839842944
-0.4624653598653638
-0.5941426560415143
-0.6226824258397935
-0.5460380665980658
-0.5939317748542771
-0.60026
-0.6223508773017546
-0.613064816996301
-0.4738291835089888
-0.29544812667507164
-0.299454019969045
-0.5684740408500272
-0.4390650871168487
-0.28825034890184126
-0.2797529089048006
-0.3387162411416691
-0.3560858017772269
-0.4576137266542554
-0.5597407259022057
-0.6145285915012692
-0.3961653333333344
-0.5533464869699435
-0.5946837832198212
-0.46330109098982203
-0.3827888142875844
-0.4570657367442434
-0.3790858951565473
-0.40065306717090304
-0.5220450446099493
-0.5510913323739447
-0.3923978277223228
-0.3638273333333342
-0.2981862412835271
-0.3334697406570173
-0.4676263556559708
-0.431566908854167
-0.4038002635418609
-0.5112023440265274
-0.2261515390177712
-0.30035636571241464
-0.35933894688985313
-0.4808882604166668
-0.46168893301476593
-0.28483802626629645
-0.05759835145691217
-0.16631599422824997
-0.49399174093592474
-0.40846752779499934
-0.23389480000000015
-0.2699989639231801
-0.13572801860692643
-0.008684369934778093
-0.16977047584064442
-0.48807998021882737
-0.25945760000000023
-0.2606683533787974
-0.15872375652077111
-0.3310547282496381
-0.05879089528381631
-0.2538481536210322
-0.40448669731010756
-0.2568123529654889
-0.3544648784642605
-0.3121078388124658
-0.15336643674761993
-0.22755648136603876
-0.3419956098140135
-0.3527600237713737
-0.23923649206034367
-0.32005151216327193
-0.40049628610260785
-0.34661262772687934
-0.42265717552786214
-0.4585110259205687
-0.5757160921109153
-0.4988067719776809
-0.6035226233715085
-0.4457683371219942
-0.3231763262309562
-0.24185899795686736
-0.3769228330655881
-0.37986853173138496
-0.3007716410434217
-0.4325612373811821
-0.46724698993898756
-0.5183801582431622
-0.5158328954864733
-0.5757837935889948
-0.6864171223958334
-0.688339900068132
-0.5846237406975943
-0.6779752242198801
-0.5640778958462495
-0.39968699677284475
-0.29660964377830284
-0.21200279471198247
-0.5823448004765649
-0.5678538794603428
-0.4331219068775857
-0.3215682011277556
-0.3095590886546806
-0.3552221402684952
-0.42429417122158025
-0.4850126980609683
-0.6234971157344623
-0.5813725710990846
-0.4866748901288158
-0.26838080000000003
-0.4645350425225539
-0.6608806760699492
-0.5850314167693216
-0.4699791890748772
-0.37259045762935505
-0.372333439851245
-0.4202981409795415
-0.598187839161458
-0.5308345927377184
-0.3119502623349247
-0.451490322725082
-0.2512602670506105
-0.35667130624349136
-0.483615726674173
-0.41188343697916646
-0.4903895763290061
-0.42786098112177745
-0.20567753340425773
-0.3079991269959363
-0.37029685344079355
-0.5643990061324474
-0.34958530183857134
-0.18719156788592686
-0.12314454587724748
-0.07855951824134748
-0.3346701643309522
-0.5063356544292025
-0.23480470400000006
-0.25271735787671984
-0.2921164978514365
-0.12176584444926379
-0.05377055140734787
-0.34968862997499256
-0.3477064276916726
-0.24647768158710473
-0.3204790347013329
-0.3584890545567267
-0.17371118651301162
-0.09983014254810868
-0.32840374452634263
-0.2957410769698106
-0.31340186350359484
-0.1589434048357098
-0.25770261764559793
-0.4067162890169254
-0.2907478485505327
-0.23787117716061654
-0.3505694758558944
-0.5038991658142783
-0.33186814206108567
-0.4619673685226831
-0.5702517802055455
-0.43836202301011346
-0.6643386021287004
-0.5064944617482948
-0.5723313783583399
-0.5077920934077282
-0.3567494603184993
-0.2861241067775894
-0.28321129448303656
-0.3962992218595635
-0.38479629970220125
-0.36321679806876017
-0.5495398855699241
-0.38390792056193307
-0.4656811690575768
-0.5646090982503066
-0.7305425356478611
-0.4397916775602167
-0.5915634745705666
-0.7271508269156212
-0.7344526128899068
-0.5167303696935904
-0.6101614321140731
-0.540727263070882
-0.5282115674355251
-0.43403298379106664
-0.2882922193049913
-0.34861573697044884
-0.5188005438451481
-0.5808562035356316
-0.6087271970846682
-0.5198457140617895
-0.33059739945972416
-0.401209147582536
-0.35835012592545695
-0.5144178420984497
-0.6418778568232493
-0.6784756958366702
-0.5369912536659119
-0.33361238789006026
-0.3934655375077507
-0.3533300632497109
-0.6393418464908597
-0.6463303476004216
-0.5784704028104989
-0.41470088622422535
-0.42598655567615834
-0.4546392403554455
-0.6076064788990151
-0.4413990709330015
-0.4344996333033873
-0.5536586598470751
-0.27590312070133843
-0.4004697442584551
-0.42474441351346015
-0.5059377289301453
-0.532434713813778
-0.375630173176277
-0.2693594653857514
-0.2991643929076258
-0.4535059794051027
-0.5240691371569935
-0.26892368299320063
-0.27105652304195155
-0.32944767828991006
-0.21127951730834313
-0.20762755373333955
-0.46730923383250716
-0.30820974332713397
-0.2718341669139984
-0.421742000450081
-0.3447989920572334
-0.20843521979887916
-0.2054343319819459
-0.3609454514844668
-0.2837538349451214
-0.396307251541358
-0.46365708410828754
-0.41601381443472546
-0.2580062823425792
-0.23052022589791318
-0.31816305875967893
-0.2920651038435775
-0.32628439384170416
-0.5122974628805003
-0.4748521528474334
-0.3015890027985391
-0.39927955498547446
-0.5884883509227916
-0.5902361371769663
-0.27253940627260276
-0.6600873138246087
-0.6178944235653777
-0.3857010761684325
-0.604234330681077
-0.47240945716057
-0.49822907858588994
-0.49168902665840003
-0.44714879982643846
-0.4027670634954988
-0.35856785500761473
-0.569058694614986
-0.42620871064050897
-0.40085951007381654
-0.4393455549736705
-0.5678743901527734
-0.7098116000000001
-0.397932298630919
-0.41737229071456045
-0.5909731936664925
-0.6950001030967631
-0.4244015134583006
-0.4949533963375175
-0.7194467010014122
-0.6098518340649514
-0.4166769626301799
-0.41307061376317333
-0.47526666666666717
-0.547698481141189
-0.571577996980905
-0.4628900848368149
-0.3821372005455112
-0.530035227110476
-0.3702231758627816
-0.5351776865687068
-0.6439845965945458
-0.6658766101761223
-0.45885809418636486
-0.3638581928543085
-0.35595604722646185
-0.6515666445579652
-0.664095722815686
-0.6341609453125002
-0.42429213525964465
-0.3883917105382068
-0.6395109191981803
-0.4198557353045302
-0.5117575034356269
-0.6096914903905776
-0.594178491837157
-0.4975734423145806
-0.4654497894974972
-0.4513836000000003
-0.487953584648304
-0.46161535052598707
-0.6292721004434934
-0.5883033333333322
-0.33638139491630487
-0.3515358446373218
-0.41208515474076823
-0.603418611837092
-0.5009819825986308
-0.4045050919611497
-0.2881391170089786
-0.2838779583241842
-0.4991557590784068
-0.41764526736111013
-0.3175328416767924
-0.45984943657501104
-0.5175173504017837
-0.42077396333271705
-0.27428646526306893
-0.3526799723083274
-0.3445055980078529
-0.2513902834829928
-0.5381827597291099
-0.4968422897742731
-0.43674280492896833
-0.28849828960133644
-0.3171374133333329
-0.2952938651461114
-0.4362374215900731
-0.6079750253229969
-0.5652881269457152
-0.5018947640418112
-0.3539888608941251
-0.3553502963422193
-0.45598555706136984
-0.5741394305452423
-0.650525786154732
-0.4553915378714864
-0.4463652445790816
-0.6364287813688246
-0.6578992528412013
-0.5400205878045655
-0.4137091503162675
-0.6353507409734138
-0.5234778988804968
-0.5011872614291819
-0.4213431313808152
-0.5368470782842374
-0.49016507542688514
-0.4720033333333336
-0.4910193932765181
-0.47386190955794644
-0.44996912967320263
-0.5583221469162715
-0.6239965716057037
-0.4880458276503408
-0.42294934885921603
-0.4324647630843876
-0.552343311448015
-0.6520321573976477
-0.4771589760281047
-0.3804723322042623
-0.5074382441611748
-0.6183086370712265
-0.4603815302748498
-0.34482405473568023
-0.6104201827719765
-0.36220395107481584
-0.3616206969853582
-0.2696400000000003
-0.3298611999999999
-0.5140954504997898
-0.6002497266555813
-0.5572799768487388
-0.4211297110021642
-0.4995566682984329
-0.31097037765138597
-0.4233163611383224
-0.5880633347800933
-0.6734158389851816
-0.5449262620312182
-0.3101284658947416
-0.37807503087083033
-0.6713758647385766
-0.586037762623132
-0.5003623385416666
-0.3719640826081481
-0.6040266377984856
-0.7938012
-0.6177662769471346
-0.40659518227969405
-0.450987135151891
-0.5178484444444459
-0.5563840247777129
-0.46306347179169366
-0.33078515199999986
-0.3396830818866905
-0.5780162109088901
-0.7399581353834711
-0.5499499999999987
-0.30450219789212646
-0.21107553190116232
-0.4442269206667984
-0.6282439083333333
-0.46901293660142734
-0.47324922304871025
-0.17896583596295693
-0.259726658979674
-0.4764589672659642
-0.3825221672453694
-0.42041096377308546
-0.6330098276710963
-0.6220968811848142
-0.5773874582110229
-0.3916051668209788
-0.3290338041606391
-0.33736241600000016
-0.19574717369391473
-0.6532702564198241
-0.5791388844867315
-0.576821156705401
-0.4208069798717832
-0.3542732888888891
-0.31226025195288276
-0.5248505631493731
-0.6326900000000001
-0.6352643547664237
-0.602565591722921
-0.5090497393061569
-0.4629680381621555
-0.6183624158937641
-0.6122385342913611
-0.6806745081690851
-0.49680078693245494
-0.5922101593403187
-0.6268446877798255
-0.5885853967287891
-0.5132360732616394
-0.6287228515625
-0.43255768877747336
-0.4402432621774501
-0.675224696218227
-0.2996830173595652
-0.6454652000000002
-0.551063044017359
-0.3499940000000002
-0.497219931444656
-0.49754720781592576
-0.4502473212954053
-0.4939827545575574
-0.6058681838494198
-0.4233366021905347
-0.4645455730546922
-0.3975733796020052
-0.46944097067460905
-0.5474067800785292
-0.4589081407315562
-0.39861467280392243
-0.3665904700319052
-0.554087745385928
-0.44073858937797034
-0.28141836405847
-0.42310289276419394
-0.2256841035815406
-0.335308342945737
-0.240418
-0.1765382357925187
-0.40191021604976546
-0.5706667174449573
-0.5822120097117599
-0.4049969052105056
-0.4213240371935723
-0.40509780768766307
-0.26604410930767847
-0.45769595833333326
-0.6204983948613427
-0.5909267187908687
-0.263792978479466
-0.4590536534142035
-0.6146159360198385
-0.41670240194255004
-0.3126037522632403
-0.4394422873537122
-0.7948934056623261
-0.7671326666666661
-0.8061478795660587
-0.40621490688156153
-0.2418393435790538
-0.3405900000000004
-0.5672021181152772
-0.3587514478197979
-0.1522371649183709
-0.28073299173780275
-0.7053381327915109
-0.733073657924649
-0.46451256733484875
-0.187333609163739
-0.12625531090424233
-0.5130333338020526
-0.6146478229166662
-0.42259668562934266
-0.5848306301372893
-0.09599126749114424
-0.30384412058689764
-0.4704773172143005
-0.34327971717515826
-0.5415300415890948
-0.7095500479894642
-0.6764068023482758
-0.676258033747306
-0.48561984333800184
-0.31253695910936036
-0.37724933333333355
-0.22037612896264
-0.6660519970239941
-0.6379089228548458
-0.6860700269730855
-0.46220708757149725
-0.39198608883378155
-0.3805581826823727
-0.6041262931283935
-0.6530716806499526
-0.6688816849198562
-0.49111693705246884
-0.5255617742744355
-0.5475412263446675
-0.5711635480114233
-0.6207077632835083
-0.5915068126061859
-0.45409719900488904
-0.4583720610402284
-0.5526912145467459
-0.2500080198830796
-0.4465815758778176
-0.33291027359325986
-0.1520940318247566
-0.4075589345723412
-0.5188547787790282
-0.43323483338166535
-0.40173178049022223
-0.5332679818007162
-0.22849358114848298
-0.4228382336437964
-0.3920870464405232
-0.376825814936806
-0.49840556181029155
-0.3069472978189704
-0.3813649139821244
-0.29510560565783833
-0.4701598905315318
-0.34424800948433715
-0.2814842452965219
-0.33105924045138885
-0.23465738508277015
-0.2906022729008973
-0.23426359785079542
-0.17792137507749486
-0.21825622501621175
-0.4645519085011322
-0.5923774184881517
-0.4265703098997639
-0.3329448030584881
-0.5820439063856181
-0.2050878142693842
-0.2781912761129724
-0.49074889759646817
-0.6150763781773096
-0.33279329023525067
-0.5542049633678726
-0.46138222874147433
-0.2378739120552845
-0.20000263637863192
-0.5923338600836594
-0.8505063463525518
-0.5908510485637543
-0.8841170421748145
-0.5067939561914495
-0.14303696554081743
-0.1937120095198734
-0.45051498187527983
-0.2661519602098933
-0.11131384380905109
-0.3674906273801925
-0.7899205757613025
-0.5658569607908744
-0.4637951890886551
-0.18465944678347634
-0.22777010478198004
-0.6245778788237718
-0.4637893646177768
-0.4401904537718481
-0.6708592737155198
-0.1854049822059527
-0.452150586457258
-0.38918835519448597
-0.3475260550790135
-0.6670213547324496
-0.694928810546096
-0.6447425418474895
-0.7181023239951861
-0.6134232030153833
-0.29077230388407577
-0.4000172630212855
-0.3490641587241013
-0.6338573702771046
-0.7312487631148561
-0.5294650440020737
-0.33680909125852493
-0.440643450694508
-0.614620638740625
-0.658153553608802
-0.4474910089496447
-0.41317720223945104
-0.38012623818244046
-0.48407726706182846
-0.5129143015527768
-0.2920990797985162
-0.34202356007439577
-0.19898920879857795
-0.11270367782599668
-0.25730508756034526
-0.4545892892441296
-0.4302428282802746
-0.3701210248760603
-0.46949053836063076
-0.15392129731006474
-0.3103791440312207
-0.3501327157771916
-0.3277078918449528
-0.482470174912172
-0.20637690739134304
-0.31281345280657913
-0.29476844021102516
-0.42311146001239924
-0.25673298679272577
-0.2706134488598441
-0.3706143619791668
-0.26713561557481036
-0.22830110353186614
-0.1764665271750365
-0.3658543999999999
-0.14076419162822965
-0.33562161769313187
-0.5119478996684563
-0.4796062270303772
-0.34608600470826456
-0.7443871547151629
-0.3137044397792794
-0.17475146230407368
-0.3583864880674452
-0.5252079859144451
-0.475303316529808
-0.49392187345110194
-0.32631543288461623
-0.1814507998964684
-0.2409563932291666
-0.7484789254659957
-0.7338146564228687
-0.43169016181029135
-0.7352497295753436
-0.6581661722073169
-0.21460436466212027
-0.23210917787421623
-0.32805596822954064
-0.34902832743414164
-0.24731548799999992
-0.5531806557626985
-0.6646722343581728
-0.3859727334692699
-0.5220831242681008
-0.31862453515189065
-0.4459487966384254
-0.6022643010582818
-0.2982670339437706
-0.5476855565203453
-0.6839154209387227
-0.36504509568212234
-0.5565650386400862
-0.26830462772079317
-0.47755277799125057
-0.7335950340012439
-0.6158212058276504
-0.6687620730702405
-0.6865107540236832
-0.3712761607881035
-0.32875843675139477
-0.495072477351954
-0.6503421992332805
-0.5564657796064995
-0.3094514425983333
-0.3785907854548194
-0.5134684488909277
-0.4119979233428477
-0.2734512531392634
-0.2847293587360888
-0.32826640830750164
-0.18440388400545937
-0.3140999999999999
-0.21467223105054536
-0.360233171546021
-0.38254694234941594
-0.39047261370542624
-0.4616411914432067
-0.30239368712543924
-0.27515543980327456
-0.303657654790584
-0.34426391728741446
-0.4777271999999995
-0.2549236255424674
-0.28749287251389427
-0.3097169131092856
-0.4929196391816492
-0.24942172246331884
-0.2520235766801446
-0.42320325347545124
-0.23304905026399667
-0.23263705963824308
-0.17864999999999998
-0.614974000000001
-0.2562356661086656
-0.2866682629529746
-0.4123515238152054
-0.4506015446001234
-0.44328422506582726
-0.7814190057700489
-0.5261807638415288
-0.2062829305555559
-0.32281636406093467
-0.39545120997039546
-0.4784694648525675
-0.3411235083342223
-0.3448525053246969
-0.2335306515809056
-0.4106169991319455
-0.758546193370934
-0.5084428224917998
-0.36415667203967744
-0.44544091477562847
-0.680242700724616
-0.3811577987187444
-0.3540061333333337
-0.3784360279987898
-0.4820731485844186
-0.40832114666666725
-0.632923474259004
-0.3964324924265726
-0.3578887099446239
-0.5884304651162795
-0.42513539739615663
-0.5955860791255997
-0.4221831997039829
-0.3397773634924794
-0.6412911427108606
-0.665661872287663
-0.5342954442760155
-0.49755741276049825
-0.31556349450899296
-0.579488120455606
-0.6976187652579852
-0.6169196542523416
-0.4493874850836737
-0.3190116180119862
-0.5291141046827769
-0.46225048441208
-0.345399794618432
-0.31441555881748146
-0.3329979379210581
-0.26995987093901647
-0.24472833248455222
-0.5824844444444456
-0.31344160683611116
-0.3457875861711574
-0.34294663910517875
-0.430956550863049
-0.4942416160363709
-0.5194594757870099
-0.33045112543009464
-0.32442323343122603
-0.379346370474882
-0.56158312
-0.3769763484190953
-0.3332148087808548
-0.31418493856902097
-0.5663613148691653
-0.2918170971963904
-0.29986047619436546
-0.3765029530114483
-0.23526777196354395
-0.2901333395348838
-0.28378666666666713
-0.7501137127505678
-0.4683677880422437
-0.29638515209754046
-0.3937448959882682
-0.36553335966750927
-0.4893322884852562
-0.6257905458833964
-0.676476358854488
-0.33757905815972306
-0.31729530951018264
-0.37191907237260474
-0.33589257747798734
-0.3134343373808806
-0.4007052089439966
-0.31611082868361257
-0.55593240369642
-0.5656099982150026
-0.3075055131512863
-0.41625256764857826
-0.25044237542301473
-0.5090298215265037
-0.502747803059508
-0.39801746666666665
-0.48494664677763494
-0.4790054956258177
-0.500318322099607
-0.5187136081568956
-0.2850593903150041
-0.44074287210985424
-0.6913233333333337
-0.48691702417214316
-0.5763130787630519
-0.3701304212598355
-0.4691081139260332
-0.6551195471924283
-0.6229143408658581
-0.4650345857054999
-0.4567488256217322
-0.5393567274305557
-0.425085760487704
-0.4225170547348831
-0.5158746683565412
-0.3668479999999997
-0.37471715193497257
-0.3236397065509399
-0.6958029778879932
-0.4579991664637481
-0.34946713483545166
-0.3663572807034204
-0.4291642136603783
-0.5715615635461874
-0.5877051318263341
-0.4014494585988759
-0.3660856533845555
-0.382776172884274
-0.624005153172143
-0.4161453635052406
-0.37174880073453126
-0.3474721312871447
-0.5137839733158484
-0.2754575469993254
-0.3635603364302103
-0.3205104843750001
-0.3268012753425511
-0.2552089949152374
-0.31876956809258117
-0.6630720099194046
-0.6103192666209174
-0.33936589680148727
-0.3711050693708781
-0.3410884650255437
-0.41812398393027045
-0.3741684543956208
-0.6247378725093714
-0.4788864754334347
-0.30191274231707577
-0.39139424791072547
-0.26445020349884935
-0.39507950865968494
-0.3668717851897776
-0.41218515503319236
-0.5481991293219804
-0.30687327957473004
-0.2684818463094586
-0.5740539999999998
-0.2547840346657673
-0.3278252721666394
-0.5095418493711393
-0.4163387453606113
-0.4484832684616587
-0.42659085158298904
-0.5237034092250462
-0.4180771750339236
-0.3683335108806513
-0.507912961621923
-0.564920897794539
-0.5331227897514897
-0.49452538478237135
-0.4755111927083335
-0.6338185282452581
-0.5589617428029903
-0.4781202566646003
-0.4671910400000001
-0.5539234110598724
-0.4173386075635463
-0.595647580078528
-0.5199885871979202
-0.34032562773520936
-0.3821264588501771
-0.39480576978686366
-0.5981795461748013
-0.48355332868777684
-0.39559862555664504
-0.3651683770383789
-0.3823837135966653
-0.5700719727629682
-0.36723840256763746
-0.3011010095807833
-0.38089574242436464
-0.41645564228146315
-0.25623458400739346
-0.27866945853329567
-0.36053999565972245
-0.3273868313016605
-0.21719955356078116
-0.30408625852448856
-0.40891502665839913
-0.588087716449524
-0.408691806802042
-0.31482638334501095
-0.3633930542426118
-0.35337868232038033
-0.2201711513163136
-0.39440039487398354
-0.5486948177258236
-0.3467544745332891
-0.3508114628228969
-0.32475637595817786
-0.40136654850923836
-0.3373699146817932
-0.5089585977159513
-0.4069470086867437
-0.1900682038668613
-0.36298977681339023
-0.3296026150552334
-0.30162010907159953
-0.45147832368105395
-0.48675541483777646
-0.3404335596733697
-0.4833352993911702
-0.5203316423971897
-0.4669382075718927
-0.4108837289847677
-0.6173206450772534
-0.5866591633498325
-0.5312845335952192
-0.6342079256720615
-0.5764071582971692
-0.5305415146310074
-0.375759904250188
-0.4729265827754124
-0.33746067750184516
-0.33958003505713036
-0.38676687531162757
-0.5619444978346145
-0.3543873113011436
-0.3250315003084603
-0.2988087364233723
-0.3674417831003797
-0.48184999999999995
-0.35928082274438417
-0.1947043433176049
-0.304254206540268
-0.3927495091961149
-0.345211554232482
-0.14068508265182147
-0.3722219962317888
-0.22422165337225894
-0.34377627241240377
-0.4155604815044439
-0.19899046056847622
-0.4315784692062816
-0.4712108028713112
-0.30235671997176117
-0.3460959145277948
-0.38106418964466643
-0.19801752634841974
-0.21088091844021847
-0.49105884782173476
-0.4501416309852638
-0.2962137544424328
-0.38648361904043854
-0.31161916179615157
-0.3987574151302447
-0.5261107624984086
-0.29548727248681134
-0.2098415450825533
-0.34057169179883967
-0.42247289331417376
-0.5467157650340985
-0.35311338815135324
-0.5885256907121016
-0.5303627241922478
-0.5099973502980092
-0.6053283350280266
-0.6050609806571607
-0.5960851383994249
-0.23433981739879486
-0.39496322501381625
-0.3179411086526207
-0.28427688610808904
-0.37430422737639923
-0.5379556305021699
-0.3502414630357448
-0.28296217424031617
-0.18969978323742606
-0.3129733092133186
-0.4371226666666666
-0.46719132074664604
-0.1858317648413458
-0.15449828701920076
-0.41147017330388164
-0.5226463737053529
-0.1752942642273849
-0.2533088628082054
-0.24550078805943767
-0.5447020481256325
-0.5830847328165368
-0.148842
-0.3073192581396053
-0.46695044940661806
-0.3075808931961213
-0.30754576692888597
-0.43756013069243055
-0.18743311550623096
-0.3726260618867545
-0.5017834011572516
-0.27375409541846335
-0.3928441857465847
-0.26802556489354096
-0.4919395182902448
-0.44277590766495173
-0.2904260130208334
-0.4286666075635462
-0.5196186175779505
-0.48788800108152525
-0.5980508711742931
-0.5287944800000001
-0.5606314135151891
-0.24827666666666734
-0.37281550662782137
-0.2732850918034326
-0.2105259983231423
-0.3571151986800014
-0.541747761934284
-0.4272675718123567
-0.323959772971886
-0.1287659502498569
-0.22769617643705894
-0.449350170613763
-0.5879842064476132
-0.299994315072287
-0.1406002003416447
-0.35473233405040944
-0.6577277825997109
-0.36747359849309474
-0.2144640975370473
-0.42574315762171283
-0.6306852754521967
-0.61806
-0.2974331326595992
-0.3870446665530814
-0.29093702446149816
-0.2550319854253138
-0.49093544018214536
-0.3158155121527781
-0.4258177760900867
-0.30346973930175997
-0.36888274709392244
-0.34408959726958593
-0.5004232522252229