<?xml version="1.0" encoding="UTF-8"?>
<VTKFile type="UnstructuredGrid" version="0.1" byte_order="LittleEndian">
<UnstructuredGrid>
<Piece NumberOfPoints="672" NumberOfCells="2649">
<PointData>
<DataArray type="Float64" Name="u" Format="ascii">
0.12580254207806443
0.14574834533311443
0.38428611734603285
0.1574339742475994
0.19960228302104016
0.21358358167930547
0.33258032731168435
0.35073476357342065
0.3627629970839161
0.37888958514566595
0.01859690085350604
0.6495207883678972
0.0848017867321633
0.6058116327622763
0.8040497493670853
0.32937824853270575
-0.07170265370934785
-0.26745346402865794
0.3426018371312095
-0.11535332398387298
-0.2112824792267571
0.3000788699905134
0.299776740527053
0.21645965939443504
0.4717763437456585
0.37515007052270816
0.3417869601941891
0.366316233919778
0.452017582473178
0.40105316653902495
0.5162748354460779
0.6585645345534442
0.49059419820561784
0.7572567272655111
0.6393576796506412
1.0479245533497377
0.6468506115943424
0.483049012539114
0.568172654394597
0.7971123260424595
1.1574819397829434
0.9828783129177847
0.586258314118306
0.6938284918146205
0.7953275461046089
0.9032590174419644
0.9169849001003433
1.1834682325352133
0.9972323544502202
1.403839723924104
0.49317419727840367
0.8846556476938828
0.8209198584324409
0.5307343945378775
0.4068624800211449
0.8364512093959845
0.7778450926890305
1.2623464762758096
0.7980355868851992
1.0608308867351435
1.021492079023236
1.511984058096594
1.2141207329795483
0.9851614758664746
0.34127323617932503
0.4070675249694118
0.3915588364304321
0.5455239450584192
0.33333481109412183
0.3466901043308805
0.5647809369808253
0.42357506966583125
0.4695189563369287
0.4068092588064395
0.45985088824112885
0.22378171335896654
0.40185191130970643
0.4983292586766
0.19888770059885247
0.16065146992723717
0.09902670237153298
0.058895177330340484
-0.11029726408354738
-0.008487596492408002
0.2420185207972113
-0.008172030533517633
0.07900470420576956
-0.07709579896835674
-0.10768400474636207
0.4234865119448875
0.3333774966170074
0.6373332116159675
0.7584350896382799
0.6088631059715263
0.6868005358565837
0.29640688156368633
0.8915104914132473
0.8465739099024856
0.943363007238201
0.6075716455634923
0.11232344222953533
0.3352183183459476
0.25820440056901595
0.2059053231233614
9.037996369443917E-4
0.09675242409640848
0.16136087241271097
-0.06118244211139518
0.49723727402325263
0.4534932792620073
0.2775986792657858
0.4619019573310153
0.3379667139221945
0.2699895976778532
0.3740364918087433
0.6070264223152863
0.5059928171270007
0.5887963838233676
0.6657694255205086
0.44523352265034255
0.07313251709653869
-0.19523647780487938
0.12280658338279304
0.08243810060253934
0.38017235981651065
0.26132893827776715
0.32246649858253
-0.3495994760131991
0.12236738047298713
-0.15081282607265756
-0.5206030793215531
-0.010798414135296997
0.17440458599289424
0.6013608100640345
0.6338851442324074
0.7455165609163804
0.8254166026095869
0.7874258129637804
0.5804693393140131
0.3471080425374091
0.14183129704512504
0.800067776418866
0.5666027362431028
0.18023459762692545
0.3775559750043579
0.8336163294956667
1.1999370624608314
1.1035239058821031
1.0503664542995041
1.1146840623245673
0.8642255401063077
1.0364583668213463
1.1870112873182854
1.3289485013017672
1.517735047764892
1.4427196751144267
0.26908704462512323
0.2734266138317106
0.26208078962602044
0.48309911054415267
0.2824133455756552
0.37330877916772615
0.27428026718831383
0.19639331784971678
0.24628172919773034
0.9303124125891279
0.21258722975140112
0.15323154831241614
0.24950176428241058
0.7402907442312366
0.8859474352271212
0.19398624045697138
1.033528380474544
0.4578512323112865
0.33903096401328986
0.26787878975840046
0.2894998301563666
0.6835480739076071
0.9293562071576379
1.4491141688851545
0.3180714755661631
0.3065836246322904
0.18443586400901021
0.3675086094172172
0.6906534916509268
0.5788329882767269
0.3732115101715187
0.618443875671063
0.580079824906017
0.7960468817228438
0.18543914875927306
0.4270630520009671
0.46220526842351023
0.2694969413385208
0.5671329520552869
0.14857890862362294
0.22193905178987963
0.21746281596940945
0.4029477343216826
1.2532948171923761
0.2676364884809768
0.9897813453615935
1.0746641620508417
0.6785055006316102
1.1531115535156469
0.4650723740953744
0.7651369491294993
0.826617176040818
0.4220103417644129
0.8394281716563013
0.47499856366704907
0.4726925968025573
0.2611398426133362
0.5591419288759739
0.26417992094958026
0.19878046453490059
0.24910759131134566
0.500323596982384
0.5630666268513321
0.22819180703875827
0.7321638598293153
0.3919862732671145
0.4734471438823755
0.5482949895485499
0.34481451871339036
0.28195014591527967
0.20337689659543615
0.3124201673481642
0.3605373070884585
0.5216733241989181
0.4090004788651725
0.2094709247274176
0.43737701124603623
0.3090102948501237
0.48609507059359364
0.3304737951855929
0.30292870259056576
-0.18324834297610465
0.1502943842899753
0.07227370415061715
0.20615152004729048
0.13338472038769028
0.48993940468690506
0.2483283011685671
0.18553913891293328
0.12936203556253964
0.6669543088324735
0.6062653875620205
0.6119437521660035
0.43710670877486446
0.4448889414440947
0.666174797140261
0.4523771380853443
0.49291462201464886
-0.016698284454818167
0.40189699543581203
0.6797035553729563
0.35187708507754184
0.09418543230237929
0.20032339324317316
0.5606164680885335
0.7604055236783407
1.0230566034270705
0.5226147096674579
0.8341001662774018
0.944255721179678
0.6495772507394074
1.1148914772510605
0.5682325019124639
0.9101710259155278
0.8781832121746297
0.8251241377353146
0.6636960658251314
0.5554331176430506
0.6454896716876429
0.34336654786378334
0.5232146546646933
0.4689706975175901
0.5023885088331397
0.7193468544116516
0.5063132711585757
0.4481293561746965
0.3080143147540287
0.47521241681710297
0.691334709369057
1.1205418598286019
0.8639183432931942
0.9128308744292754
1.3162627035787493
1.0621992437265972
0.8063045175391009
0.7834748262211705
0.44615242426646
0.49085952533901006
0.6532175812814622
0.6026468026150557
0.675620601996277
0.5200805991889031
0.3336253174946876
0.4030722670618617
0.4680314082519405
0.42549922236088744
0.4304606618759444
0.45860827022727424
0.45743454820781115
0.4055516079382104
0.32211820786203266
0.31772095015357754
0.15105009177506348
0.10493647752807352
0.18897233818890857
0.1947609210983362
0.7406074734878305
0.5197541791363626
-0.22987898937788034
0.3024181659379773
0.30943884508582803
0.01853669971235968
0.37646765371186786
0.37598647638240307
0.5631779540922393
0.16543693457479203
0.5238225420197142
0.21705051195790317
0.13847823665482167
0.16348873652183174
0.994466698308493
0.5309489899031192
0.5967790533012814
0.6151530926767547
-0.1353209765528562
-0.35338560945698555
0.27713984950941145
0.3410856535729813
0.4821064201300206
0.13853280367158438
-0.11121373116765983
0.08935044129739868
-0.2412718394054951
0.061209760528290864
0.8648012571162892
0.7321261313824102
1.3037412406058728
0.6770940830100316
1.4187942356216394
0.4746942613852062
0.7298697153199171
0.8939984144656935
-0.6951875372954465
-0.36545878134461013
-0.09459338182066362
-0.29617571837127704
-0.48580554400161113
0.1300030062901172
-0.010148031420936102
0.2435763853528906
0.17569460161129238
0.03005175847239687
-0.2514859933166455
0.7622778330553328
0.6835251150864189
0.6941015343755147
0.6214049315919686
0.7502114860506839
0.6284806715915611
0.40177829403818044
0.49312488435619056
0.5085360162031406
0.3633907530793316
-0.3381783163679012
-0.761801034259794
-0.28755481830987434
-0.2048935064365947
0.5534316474212003
0.45014378504632363
0.2363545527831551
0.6464823617227761
0.6558912542708354
0.619026925479893
0.7857870165478388
0.7180168454645075
0.2399278811281967
-9.795881889875793E-4
0.35208305613317487
0.37364319986260214
0.6055016440196571
0.6533726120765375
0.6034835642973883
0.20143465778207018
0.9855349164998428
1.1127400938463354
0.7425449730541036
0.7863420327463995
0.7365076257505996
0.7310980130783757
0.5557411990206047
0.4452120203775932
0.6177019670365013
0.5865137648249641
0.6375423662691423
0.6075001104072192
0.585055498183118
0.5898663596256651
0.6968811512481343
0.6728358625272368
0.7897042152533997
0.9793665237410211
0.94153313836704
1.222712138432228
1.1544115403356476
0.6962016105013269
0.5767799204539875
0.9289569934556211
0.8241016234684687
0.8244175300114447
1.3401621500642078
0.7283476498039568
1.5193538398624928
1.0092491726784742
0.5481783352340467
0.6108319091977548
0.5254869785445397
0.37439561536853494
0.4838813466661968
0.4455359102774838
0.5138845747249021
0.36029197096525417
0.6030685794294512
0.8187582535613432
1.4076866174352014
0.8070886161239201
0.9549934384832676
0.17469667551037815
0.21164357663813535
0.3076308036698997
0.09471575237624753
0.5353323723977114
0.47768679724426016
0.49321361069192704
0.41216722749629164
0.2043138426770003
0.2059594570420363
0.3149680139583498
0.3952530392566428
0.3954019230840495
0.346061679172219
0.27061755599045706
0.3555355805633824
-0.02202258862814865
0.36747464101806676
0.28676938990918316
0.0014459611524182882
-0.4004807617986434
-0.03981792615888594
-0.3795901674443162
-0.12012692436511861
-0.27278096923552514
0.3363817365856736
0.2738238391952289
-0.13956028567162732
0.009704961717314818
0.2681589744498969
0.36677761012343885
0.25177503137907836
0.38280166167131335
0.40616912243427516
0.5455309474411677
0.4130247767330971
0.23870407456146397
0.2598892169756631
0.2593359887719722
0.12088020752474234
0.2548586024194458
0.8132530365131196
0.517951167616969
0.8787650698659846
0.5271785028448256
0.3232150858382851
0.5075064141566289
0.42881082413807553
0.398911819001484
0.8332631124293712
0.7278815138941005
0.39498099357155864
0.6204686599345345
0.8633176803497561
0.9181629980111712
0.49678570641019615
0.4779226035462988
0.347265550999253
0.6341676801948873
1.2064165526760036
0.6839774302719557
1.136972847702584
1.7264771158538164
1.250052963256671
1.5195894629776736
1.4217532993784046
0.9947648618259238
0.35813115517246435
0.4771144323028716
0.7089975179815177
0.5006285863232512
1.142965420287194
0.8636038486567573
0.43227848170748173
0.5151060425304709
0.6465350680869132
0.7133827896421447
0.40109766734974406
0.38830580379822216
0.5324639214847958
0.8759080859357833
1.32625734447955
0.900480213721305
0.6024187202411594
1.2085765996234727
0.5676744795066635
0.5316731407370064
0.24278050823727843
0.35928475797549847
0.4110498031532313
0.4967632136631701
0.4595810759494468
0.565422861102314
0.6558856322362978
0.32977306315465155
0.38231862468266226
0.2748808380389026
0.2848189481433944
0.27563728292345646
0.6094285337717739
0.18676774747320032
0.3840594535379121
-0.1465222251883588
0.3933773018827634
0.3443609440451507
-0.20313520916444067
-0.21701175804520864
-0.5301069540826318
-0.09727186381945925
0.5469641009187958
0.8608714883165974
0.7509496807235722
1.2144920842753557
0.11144843687013146
0.19352396754292653
0.23096742726549943
0.21191579007091027
0.4778149299633647
0.4492519208546399
0.7344272862248998
1.0077761195884085
0.09932359697519551
-0.07080948931042107
-0.076790404889287
-0.18562814633199967
0.7602037218461034
-0.25228370186725396
0.0917888670578092
0.2978125928029319
0.7005932366797094
0.8748045125509339
1.1596436704874278
1.1527075961531534
1.081281912921511
0.27856474067346254
0.502685831569945
0.4828599294185913
0.5513535027764607
0.6023103631664408
0.6376897028685652
0.6788462789333107
0.695761750335346
0.419635838655764
0.4495231335017645
0.458710655364207
0.4595914248971027
0.7697920962332119
0.9215468267441734
0.8183418741049104
0.8365018164674682
0.6004584218472996
0.5113006783042539
0.0016255307181235643
0.04540605919904168
0.26866981389617817
0.15791989060842887
0.7817318906984697
0.7293803684396764
0.5884808166901873
0.6558874152063455
0.42369559913050403
0.25633114278343566
0.1923884999830565
0.2513933679882667
0.4371205570276508
1.049957552593307
0.41448617090827605
0.9514519473274381
0.8611709372796581
0.5736311878482699
0.8728838178394653
1.2095242898658713
-0.034579125348603766
-0.12029277389971894
-0.10359320706143886
-0.277676117736444
-0.28839971535111747
0.137325112155068
0.3085790679593461
0.7014800923850776
0.5739208861456255
0.43347882984130864
0.49285995141964983
0.4321215095456639
0.2682741001560593
0.04412675127685129
0.6870163356561719
0.746645398018908
0.9769398669545504
0.4729137682440937
0.8967801132171428
0.35505638817177854
0.8182509462374246
1.0025457244976266
0.1511384524519648
0.4837107486464388
0.41478349934647224
0.5618740594065517
0.5237467325012654
0.5119377705835916
0.6779127616136905
0.354085740002109
0.35642781700285375
0.17956871830429735
0.44262206120689346
0.5011913740119206
0.5651798795612385
0.883893274238613
0.7074657865183461
0.24704361402941424
0.3199874740241374
0.3290955397991136
0.35352585051254876
0.6078757737090257
0.33937721526713593
0.40054083968838283
0.7159645787519993
0.5339310095291114
0.7246037403066624
0.7393975401847361
0.40607540151907656
0.1260301936372941
0.1625351487734412
0.4800301327432966
0.5729710193906222
0.6188432789379661
0.7193690446565332
0.5578117207483946
0.7114592588555044
0.33587861026342425
0.33737009566782616
0.6907315150180783
0.7464650717923643
0.4350653504070483
0.145913042289711
0.6300166774209202
0.25648955860272893
0.7297598733258005
0.5866760417753132
0.2739701307655753
</DataArray>
<DataArray type="Float64" Name="f" Format="ascii">
-0.4560640759990412
-0.4482731567764831
-0.4016746672543077
-0.4403424549700156
-0.5869647014926007
-0.4972008269685267
-0.4182442049037958
-0.4922327822150112
-0.5002032043001173
-0.4230374478943712
-0.39754001217169027
-0.3714248196428573
-0.40172077154570196
-0.44810811281025925
-0.4625521179805912
-0.4518143637432322
-0.41349857548551044
-0.38634798698714795
-0.27362424793636375
-0.6282134366283986
-0.5099810472685555
-0.33352808443772647
-0.47588981861945984
-0.49932895297046004
-0.38446911345319285
-0.5874104436241435
-0.5416520441211781
-0.6652204380619652
-0.3717481141767775
-0.6318196866567458
-0.5121711961876828
-0.5237906208015829
-0.4628502757531763
-0.4434999783537758
-0.3328921836743329
-0.38446911345319285
-0.383426136659508
-0.43524934824192957
-0.6241504049297345
-0.5142462035637935
-0.4945015702958554
-0.4563815823809989
-0.6018242876037578
-0.4355924352194675
-0.3663525042388777
-0.5473513975112934
-0.5332556339622666
-0.4454725248285171
-0.38067511121558134
-0.5562272240876033
-0.5121781134788178
-0.5595466582004781
-0.5921582676646208
-0.46382120000000004
-0.47573414212000575
-0.4458484298055029
-0.38446911345319285
-0.3844691134531932
-0.4487118125421899
-0.38446911345319285
-0.44550518228100705
-0.3844691134531932
-0.38446911345319285
-0.4477504648723959
-0.4778651767162857
-0.5096770453635917
-0.5840390992968504
-0.4638212
-0.4990400057403593
-0.48854229794997356
-0.35209630818523424
-0.425521464393462
-0.39990474901409245
-0.3998701437803374
-0.516709717988488
-0.5818701950755959
-0.5444439972991886
-0.529027266104733
-0.5475933656769142
-0.474861944804017
-0.7199821670104742
-0.5524721418511893
-0.2773706200396823
-0.4192297981016792
-0.46065588703048443
-0.5081978009666523
-0.5057080118109104
-0.37925776943271666
-0.4686587952971643
-0.522045096930422
-0.5027255311738159
-0.4292304664113295
-0.5103718142269914
-0.5174391952746219
-0.39661512139058414
-0.5627783870124314
-0.48285300091372296
-0.4290439919508258
-0.45128283144945863
-0.4655054445289464
-0.4264517428625921
-0.4709543552386857
-0.48394180130783493
-0.49844931819886484
-0.4904052604381511
-0.47177238085735057
-0.4383493525650458
-0.47095435523868573
-0.49229357475241325
-0.45296640217273465
-0.46747416189766083
-0.3542132616596705
-0.44248517857142844
-0.4716047505525805
-0.41785282874292934
-0.40962885521005715
-0.32915698851980085
-0.38757090786705467
-0.3941796443933629
-0.5290657662405497
-0.5007495916454868
-0.3134765064098188
-0.5416281996652983
-0.5508143188821271
-0.47509147083835923
-0.4510787239583332
-0.5326111159905403
-0.4264931216380707
-0.40782928680730823
-0.4264103640871139
-0.41333002761626086
-0.4510787239583332
-0.5504567412326934
-0.49683024676070187
-0.4673560915121831
-0.5321473883431657
-0.4836200357618664
-0.3685518522167325
-0.467356091512183
-0.5453163301834574
-0.5055764214295764
-0.4519663317005753
-0.5331183407049361
-0.5419060431020145
-0.5084813420176383
-0.460602633283593
-0.4473261026472692
-0.5096800000000001
-0.50968
-0.4476084944090981
-0.50968
-0.50968
-0.4521729778575132
-0.5096800000000001
-0.50968
-0.50968
-0.5285778550170086
-0.4372334782419174
-0.47932915818851274
-0.5294269392795038
-0.4344542834394599
-0.5968038928202603
-0.3641890318887913
-0.4460233734670759
-0.4165270528565391
-0.391870034078618
-0.49481129269739227
-0.3929903391713909
-0.48277242529448267
-0.5422187152575431
-0.40506344840819725
-0.4091779735002271
-0.32010954828510213
-0.5564570351199588
-0.4633885313433774
-0.4197480636605499
-0.36021638564869113
-0.33938783187683724
-0.4456529462005357
-0.31761066873562754
-0.5302182473964087
-0.4250576204875454
-0.5047171109954185
-0.4398092082798608
-0.5304446957270029
-0.381581570281838
-0.46695346303369445
-0.36742782029924526
-0.40283092314217744
-0.42838759029029105
-0.5144249946686613
-0.3896941372744513
-0.41812841282112045
-0.40637977703644046
-0.4168736515809052
-0.5405382658149023
-0.495783865119913
-0.47414280223784494
-0.5170280008726935
-0.512500063251071
-0.3958949365953148
-0.4111877412882686
-0.37896735687589217
-0.3519206765257969
-0.41978005996936035
-0.4712502722787466
-0.33063064261044106
-0.34326120406255156
-0.33799047125137033
-0.6155107158836871
-0.44787613435503104
-0.5175358178940591
-0.49201632600338435
-0.36468075492965385
-0.44055924035823685
-0.6042732034535039
-0.5181605120421472
-0.45254436062268166
-0.37863169294632737
-0.5234403706545949
-0.3596733953709959
-0.5415969753461968
-0.5245215834418245
-0.3014890246470588
-0.47335676688228384
-0.5603552556014454
-0.5516712242793921
-0.6199624150128521
-0.5378851849146108
-0.24326501334449982
-0.4877954770550766
-0.4703723788390693
-0.458029428218006
-0.5767473659862207
-0.5131814336368249
-0.43396265966654335
-0.47831996317240294
-0.5595250286123858
-0.5917585985151826
-0.5792282944166459
-0.49562807422648675
-0.7068070677228968
-0.37947517688282967
-0.36960339038076195
-0.5851032590924669
-0.229852506742354
-0.6368686710088938
-0.445185392453901
-0.4586796181499709
-0.3798604908996873
-0.5141304187371478
-0.45269859209891383
-0.5065628831450796
-0.4273967946516243
-0.46590460108047055
-0.41475290869152737
-0.4633147211466178
-0.5501265521060813
-0.45340337768876127
-0.44951450284088484
-0.5472127419375296
-0.4469083460513647
-0.4784573612298742
-0.40236451637929777
-0.4978824639149861
-0.41989238503792103
-0.5639952772112221
-0.660473450017564
-0.4668054883054873
-0.4055772518364308
-0.4231020540705188
-0.4942012605948136
-0.6319541607405926
-0.4713946810582109
-0.4628030927694312
-0.4700765614281757
-0.5123805171424126
-0.5164571571068819
-0.514323911924775
-0.5099813928056369
-0.4648882710150285
-0.43296463442242283
-0.5469220314727019
-0.4371963648472588
-0.4054608253951451
-0.5989156598582481
-0.5016954120060789
-0.5203695670738042
-0.515141160765909
-0.6141219615183096
-0.5234792164756528
-0.5389164994092018
-0.5795388297912154
-0.5465015682003659
-0.5500874400206326
-0.5979028032354472
-0.5568912341930742
-0.5670717463416277
-0.5838576721716231
-0.5533800020610316
-0.4465746650109566
-0.6155253418302208
-0.4718239180635771
-0.5671559489702763
-0.5339382174561187
-0.5853363647578068
-0.42186468763625523
-0.4846483035871874
-0.4018479924772246
-0.5055042953840402
-0.398171470101391
-0.5231541736687878
-0.46512630150348017
-0.3261500372705628
-0.4451699478946697
-0.48604727677158366
-0.49030084804545415
-0.4080078065303131
-0.38561235203193955
-0.4618299987615368
-0.4421026142742122
-0.5111937078910015
-0.46806324920046716
-0.5313656777771858
-0.493518470855368
-0.5436639027876283
-0.49052681255774083
-0.40546917077477934
-0.4507843599751149
-0.4586644641158311
-0.4170579261970343
-0.39589888021466796
-0.5504150766220248
-0.6010674520412316
-0.5791571834362939
-0.4949659502351445
-0.4565060821788123
-0.5989575957170122
-0.5512769959670115
-0.5121043525082899
-0.4286755827040766
-0.5335563289061535
-0.49084170501235314
-0.5823604736512332
-0.4147734930217262
-0.6078398150503793
-0.6208937472950496
-0.6402694047042973
-0.5411733942544654
-0.6033779580009783
-0.41583551766368704
-0.5370319999999998
-0.5543402636495193
-0.4447894403917998
-0.561496710588933
-0.5136773493550548
-0.49899560174354496
-0.4378219107341533
-0.6890680409175455
-0.41355071903579976
-0.19878790499944315
-0.5547760435666869
-0.4544909892113096
-0.3513669633733902
-0.47868374581959694
-0.49032958835348317
-0.4153834372863949
-0.42820859721088933
-0.46943940531299827
-0.5369800727124576
-0.5913668863698669
-0.5723932787335677
-0.5028655222136696
-0.34071505615714676
-0.37531920705151767
-0.6137857447336791
-0.4516302594323886
-0.5464357680587608
-0.511337262831133
-0.5000249999999998
-0.5879336993453333
-0.4483011781575838
-0.4540088432798709
-0.5615412145953328
-0.44502301785538884
-0.5462663927917397
-0.554917863373859
-0.42365635957842795
-0.5460477403653224
-0.4609440250398792
-0.45476983200490034
-0.4422398744414559
-0.5751271261422702
-0.5809036650386422
-0.4958990306072906
-0.4394655269016421
-0.5729085949265348
-0.4823792706452335
-0.4509454858582845
-0.4960926871341063
-0.5317575546677827
-0.5525028907469596
-0.4360952740999246
-0.5688369704484402
-0.49353645288782905
-0.4525479180358813
-0.6001106986727213
-0.49655604691846345
-0.5554198958319555
-0.5599757861409207
-0.516981781071614
-0.49494747446302173
-0.4992980397908893
-0.4699872140425097
-0.5505828575799783
-0.5210064676586061
-0.4755857595647263
-0.571697089426114
-0.4854285313480565
-0.5371369974806475
-0.5512450700771222
-0.4919164131310312
-0.5270519032819101
-0.5592052188013832
-0.5210170865858672
-0.468571836158944
-0.4659775273816905
-0.4714500618805133
-0.5400003313522557
-0.3697218995820693
-0.4681646368124902
-0.4956979231301358
-0.5571856973761283
-0.5148023818032985
-0.5149093160409528
-0.415222637336622
-0.40100105083694965
-0.5451535086032442
-0.5276717638172523
-0.4527076101568529
-0.45344594202751864
-0.4810341642981659
-0.43405642548527607
-0.41998145763098027
-0.646447221763675
-0.5947963593304073
-0.41456258100275595
-0.5475837911137953
-0.44080196993180343
-0.5033196083953402
-0.556084681331107
-0.5119890250232935
-0.5885002269120962
-0.5232464526247431
-0.46932100911116154
-0.5566640000386122
-0.5461474420671838
-0.4850152200638219
-0.5998463431702444
-0.4312345919518181
-0.40302662046737786
-0.4475456208979639
-0.39388909619332346
-0.4714042440686239
-0.5742869466514023
-0.49894170400208365
-0.5113204496905385
-0.4934105886652801
-0.374327772644945
-0.5371522330749351
-0.6371489276550482
-0.5314791149628224
-0.7444896115771092
-0.6068223444817291
-0.5763589667611464
-0.5015981710704234
-0.47351980367844526
-0.6134680582421679
-0.40078099562883995
-0.4493725838687232
-0.40560630982183926
-0.4516174955197802
-0.5178731157495415
-0.4158553586404442
-0.5559066499444844
-0.604345205488448
-0.48327557894356116
-0.5913732752014874
-0.4510090932302025
-0.4144140187887566
-0.3960730803639336
-0.4428846517875594
-0.559151415353746
-0.5916909576387306
-0.357794176792829
-0.42746595279227784
-0.43794202591241754
-0.46697553299159633
-0.6023997495350272
-0.5940875602311386
-0.5198415149865838
-0.4792293247200846
-0.5582644363938509
-0.4810931628153466
-0.5262726047831034
-0.4277009537386825
-0.5144642671808716
-0.47365808894382844
-0.47993199855698265
-0.5434089477824033
-0.5499542244970199
-0.5045218046751572
-0.5939948331103674
-0.48313293242405414
-0.589793886036455
-0.32534304418600796
-0.5030586474755595
-0.6524158601093827
-0.6523606008712673
-0.4585579710594344
-0.47310037431446966
-0.2720617230996973
-0.2702960062992406
-0.2685291377936885
-0.6478323084949725
-0.512748137699269
-0.3918479513237252
-0.42136345587214546
-0.490280839576559
-0.3907584406401952
-0.6547084088995802
-0.463715540073571
-0.5906196949815675
-0.5480981266149872
-0.6316624209209922
-0.5361975856995472
-0.5193113207875668
-0.5390329824252403
-0.4280976572207704
-0.522680960251991
-0.532567944203347
-0.5441666938805502
-0.4808609521805505
-0.45880449866912454
-0.4454650900667657
-0.5235819267526197
-0.4800344719991478
-0.5206629277545891
-0.5406617463509524
-0.5779760556880545
-0.5218602578124573
-0.48592658129614735
-0.37642846067233515
-0.5585548388006061
-0.4393178006819588
-0.38457703546060795
-0.49885508040447674
-0.4077306511705411
-0.4099144473288368
-0.36294023282372473
-0.35986465738275003
-0.5055891828890274
-0.4670275915235754
-0.4638659202386028
-0.46075078714705514
-0.418517668551402
-0.4179533318875351
-0.4715149323657909
-0.376190056901845
-0.564561491650848
-0.45641147909737795
-0.47658718420069945
-0.5079248093740004
-0.5206637421243097
-0.5194971083312766
-0.47058341113341573
-0.5359739615623064
-0.39440021712733553
-0.4794693523748386
-0.47317328181289303
-0.5340929267092377
-0.3716909384640251
-0.6625192051679586
-0.6195536659148413
-0.7065975102678257
-0.37136425272575696
-0.5200804607187941
-0.4064865141781089
-0.4678869531037017
-0.38935045131639684
-0.5165914618026087
-0.5942351948107251
-0.44897121576336035
-0.47097508218607387
-0.4675750327813732
-0.5496441963683799
-0.5454600156857888
-0.45079983979328164
-0.6763219513305531
-0.48420865160512083
-0.46935736351127477
-0.5625915357608554
-0.6084918061051536
-0.5661019279225916
-0.5732550580698499
-0.4866765876516071
-0.4295265408796434
-0.5320886434009485
-0.4405653135612702
-0.5082041734813086
-0.3625306427306678
-0.5013632426893404
-0.4052713014717818
-0.4918366369714672
-0.5395138388440034
-0.5647714994864896
-0.5643225264846824
-0.5694667239834714
-0.5378151349042711
-0.5280199297886726
-0.46189711097334146
-0.6105875463758985
-0.5347762455970261
-0.4733509492468301
-0.38537432648085973
-0.40764550316069764
-0.6018508366057449
-0.43925744526069715
-0.39246934828345265
-0.38446911345319285
-0.4582412585215274
-0.48106402352576993
-0.4392539443368547
-0.48103132090142614
-0.5178049226164723
-0.5423356549616364
-0.5447076694293587
-0.45529503208521654
-0.48549206334874734
-0.4661474687661843
-0.5096800000000001
-0.479019137077252
-0.47559188450411355
-0.48108622332231704
-0.5594959555575089
-0.57900424356529
-0.47797009591237805
-0.3752878662984986
-0.4515603893769572
-0.4273348166534667
-0.4691527178166148
-0.5437606313746508
-0.5025170807191839
-0.5013966459342286
-0.5577984041788877
-0.5230668740738297
-0.3357654016982216
-0.5105946218026567
-0.5031188232844537
-0.5024777713195637
-0.5484855860694542
-0.41732000780602785
-0.5079620028122203
-0.524375688702738
-0.6028704852162012
-0.4317470992823454
-0.542478010074083
-0.3885028970630175
-0.5797233706913807
-0.5750541108057449
-0.6517159903406999
-0.5746012816421974
</DataArray>
</PointData>
<CellData/>
<Points>
<DataArray type="Float64" NumberOfComponents="3" Format="ascii">
0.051026113098727434 0.08600177986450669 0.29999999999999993
0.04227883291249092 0.047939224310635895 0.3
0.0720391719122123 0.06935674235575601 0.2578594489271271
0.0860017798645065 0.05102611309872777 0.29999999999999993
0.1 0 0.3
0.053164023606176045 0.013943122276674463 0.3
0.0933012538660835 0.03598438587799763 0.2608244526866328
0.07167184254219708 0.0032192138312489875 0.25948857686412263
0.04638482881804534 0.037015897754092045 0.2599806508510354
0.037013369917786594 0.09289784953016453 0.2613756306428428
0 0.1 0.3
0 0.10000000000000002 0.24
0.015967628792777952 0.06205739579696616 0.3
0.0900257541414851 0.043535773695397614 0.2165491991335119
0.052540912315940456 0.08508497242761882 0.20840741109977517
-4.974679776301841E-4 0.045670612998757194 0.26416801933830164
-0.01276175732628658 0.06190746481407493 0.3
-0.051026113098727795 0.08600177986450647 0.2999999999999999
-0.03598438587799764 0.0933012538660835 0.2608244526866328
-0.03931430301398858 0.03769179248074707 0.3
-0.08600177986450669 0.05102611309872741 0.29999999999999993
-0.06935674235575601 0.07203917191221229 0.2578594489271271
-0.09289784953016453 0.0370133699177866 0.26137563064284275
-0.06243214200573856 0.012692146005555127 0.3
-0.1 0 0.3
0.08600177986450548 -0.05102611309872943 0.29999999999999993
0.058453283185157204 -0.02278808167319614 0.3
0.09289774606158197 -0.03701362960691413 0.2613753747279502
0.050042431218310555 -0.0295459582154997 0.25815270104161236
0.10000000000000002 0 0.24
0.04619450246111688 -0.04739064463759382 0.3
0.051026113098729654 -0.08600177986450536 0.3
0.06935654097514962 -0.07203936579372688 0.2578581990573389
0.02021751731938387 -0.06054059803436248 0.3
0.03598438587799806 -0.09330125386608334 0.2608186501391343
0 -0.1 0.3
0.0157403018785058 -0.06223916528955508 0.25995241852133005
0.053890359975504266 -0.011701271793405636 0.2163054020832249
0.10000000000000002 0 0.18
-0.010419645895973639 0.05958265605507741 0.2203764523416998
0 0.10000000000000002 0.18
-0.04353577369539764 0.09002575414148509 0.21654919913351192
0.022696481903450395 0.02913955796866975 0.2242037055498876
0.05489725004665383 0.018865110950033247 0.17061690892274955
0.0871018217960028 0.049125071397580364 0.1591806407171875
0.026167148076315705 0.04879282329614361 0.16802659032774095
0.04913265630104126 0.08709754350613884 0.13809616141512307
-0.011582967692963218 0.06343752975373772 0.16005389203456122
0 0.10000000000000002 0.11999999999999998
-0.04912507139758038 0.0871018217960028 0.1591806407171874
-0.03697447780442473 0.02388403693479061 0.24388370937437487
-0.047755558676214144 0.03969692768776785 0.20001665211424993
-0.08508497242761882 0.052540912315940436 0.20840741109977517
-0.10000000000000002 0 0.24
-0.037309222477960535 0.009167355227784845 0.27283092344195686
-0.09330125386608336 -0.035984385877998015 0.26082445268663423
-0.06250578181763533 -0.015810710485154103 0.3
-0.08600177986450536 -0.05102611309872964 0.29999999999999993
-0.05169513507612061 -0.03354986301692461 0.25679110081028167
-0.014295897018079345 -0.053611712980559056 0.3