<?xml version="1.0" encoding="UTF-8"?>
<VTKFile type="UnstructuredGrid" version="0.1" byte_order="LittleEndian">
<UnstructuredGrid>
<Piece NumberOfPoints="1536" NumberOfCells="6750">
<PointData>
<DataArray type="Float64" Name="f" Format="ascii">
-0.5827006921280509
-0.61974
-0.6838506573516411
-0.5822958280116556
-0.7118706014012027
-0.6460784605066677
-0.7320318369129791
-0.7768261979166667
-0.6977225465396489
-0.7092039104719747
-0.7350107780533168
-0.6748352424418168
-0.5944694079732161
-0.5693128000000001
-0.5350867484902969
-0.4326685987755444
-0.3917503595784253
-0.3770176245177168
-0.4894726023269102
-0.6144139512295927
-0.6785434405850274
-0.5699252318175757
-0.48892588551353633
-0.7214085767777111
-0.5967731504268996
-0.7228515094367846
-0.4198600471571239
-0.6042608878464041
-0.6124061354825375
-0.401536851437917
-0.5490387532023212
-0.4471118058444082
-0.47238497553363507
-0.42963522758129363
-0.5038339179582562
-0.46473186225602614
-0.4894033670594223
-0.6213581866088036
-0.6479596773927521
-0.363497867524527
-0.5229307871930627
-0.6884183544669612
-0.3367941248413613
-0.41650070675759465
-0.5479725582155379
-0.7063888499911021
-0.6166419444068069
-0.6051200711717296
-0.3167044191802599
-0.2349420975762411
-0.6299957202526945
-0.4556695439852655
-0.4011762643879713
-0.15459684123705178
-0.5244981832712384
-0.4953695079335319
-0.2796912340469119
-0.4961529674537442
-0.4349731458152509
-0.5018540625801138
-0.5481651115180942
-0.5297352035544529
-0.5353328497655504
-0.34449538174742317
-0.5184382603202985
-0.5901362555430697
-0.29931492781764607
-0.31157240340495557
-0.5403479943979245
-0.6287992036770619
-0.15828662900592227
-0.41536969828476966
-0.3180755184719859
-0.6461002345244645
-0.5527978649307704
-0.6925969317507762
-0.4382755699807834
-0.44300892986573553
-0.10384001512173309
-0.21734974725487397
-0.5998389819186177
-0.5844565111953911
-0.2494615548647098
-0.11720345394892641
-0.5869013719739024
-0.4393287742385295
-0.2003387340907922
-0.5108202736313939
-0.32860550700557917
-0.4053030086439899
-0.5755935061378052
-0.47513333333333335
-0.47056277285221254
-0.5003622105054647
-0.538604865451389
-0.46372558764216504
-0.2607681728021713
-0.4044402641048961
-0.49414281386976217
-0.5746486526141766
-0.3356973447904283
-0.14939947306261334
-0.4262728589622935
-0.5948390049563006
-0.48405720000000046
-0.15588010250040607
-0.4048400000000002
-0.14062842761346997
-0.5793585316600273
-0.6672851979820891
-0.3789089522628645
-0.6191542399236489
-0.7350420588160983
-0.30155672338253336
-0.09224805966727835
-0.22977913613160575
-0.7215470813684864
-0.49110281446491416
-0.22207184176685268
-0.1516060937499999
-0.5357654710743178
-0.3782158760165774
-0.18848241268857202
-0.43005893613908613
-0.2432313333333336
-0.29598182889026686
-0.5931208558083787
-0.4946400000000001
-0.4660480107880216
-0.5016339516630465
-0.5358079661458335
-0.5933644120410645
-0.4599535645092095
-0.5674923378797273
-0.5049012735369781
-0.3743020511649959
-0.2798846481844555
-0.2858923186515297
-0.4796812539832019
-0.5148246278030743
-0.4698769600000003
-0.3963968058225002
-0.12716744145494327
-0.30599136667432986
-0.6179368201541119
-0.5795601274860332
-0.3723529807811532
-0.23976125655095318
-0.3528259999999999
-0.10459345968129787
-0.4610044903154426
-0.7874568371525079
-0.5729391113761447
-0.7841834882453999
-0.6212838730332707
-0.2619320578609701
-0.19123192005494805
-0.21365348862297728
-0.6309646547442497
-0.425169948568147
-0.2620798364639212
-0.17254069791666662
-0.45734027759152723
-0.32904061692327885
-0.1813382864228146
-0.3543233030154567
-0.19298111999999998
-0.2674895461872287
-0.5617519491185652
-0.544309370737756
-0.46904737223237003
-0.47821293980910434
-0.5237862054132654
-0.6500541540951988
-0.4537798015458369
-0.5670225535606735
-0.5510384097276974
-0.5157284302404765
-0.4913995369819463
-0.5214583689191984
-0.4524190346236488
-0.433486078077531
-0.3324191780047857
-0.35527182475718094
-0.1954260402724918
-0.42745707183673365
-0.5215759396442278
-0.5435671895575264
-0.4629236090322912
-0.4088003077272822
-0.2553216583315849
-0.19030314307364804
-0.5650981057757286
-0.6781583709444106
-0.5700110497483287
-0.3055732472540181
-0.41285532961355725
-0.24415271128694552
-0.3305590099576294
-0.7145190853052413
-0.6995490239179577
-0.7054467667884977
-0.46779946814076584
-0.33473408174250263
-0.28623309150782444
-0.3224092623818095
-0.4888878614754735
-0.4114975236756902
-0.29352484512677884
-0.2631917177987991
-0.42248197902743184
-0.29156231055448845
-0.1856444283767444
-0.3415233536534869
-0.15777623021285384
-0.28143829598758907
-0.48088341533222295
-0.5352882300062001
-0.45538649064518855
-0.5798767805331683
-0.397068610714357
-0.5036091829985431
-0.4284240154602721
-0.5609551833858042
-0.5041418575497244
-0.5810986639801612
-0.5067125080092859
-0.5806717982641042
-0.4194089072490979
-0.5056714696805233
-0.4096679675439629
-0.5884545208274194
-0.5740791958413675
-0.457264961834877
-0.4358590691732107
-0.2699419736463146
-0.3440240338912996
-0.4111137724736516
-0.2563194143910827
-0.2522062729309225
-0.5196060433430104
-0.5885605088820006
-0.647494098937022
-0.4816189640124798
-0.39617298933022554
-0.2587419381842722
-0.36752218411408794
-0.6522364970035137
-0.6404081402235686
-0.41818919954179284
-0.5361508162843558
-0.40964584016933786
-0.3392393744534965
-0.4819108300949586
-0.6307487231149275
-0.49584337979889814
-0.40220127406488965
-0.41348122150672606
-0.36274965285167915
-0.5093498571917018
-0.40342843565602254
-0.4065845502045875
-0.27194840774632184
-0.4276996757626827
-0.42340352515230967
-0.22698816835815902
-0.2727301165232828
-0.32309988213533175
-0.2157752943996689
-0.35075027742470555
-0.40011848273334527
-0.43647
-0.39653231892863783
-0.3531825414229521
-0.44710357812499996
-0.4010801305915956
-0.5309346695598264
-0.36617438606510194
-0.43051153779829804
-0.5022711177929324
-0.5210495910639826
-0.55148216
-0.3781131235861983
-0.4792004902305984
-0.4311353709444094
-0.6011283500170812
-0.5807695226286423
-0.45636688251940377
-0.4048929559592309
-0.3010530722473377
-0.3665158758696699
-0.6521018938250992
-0.5881507273105595
-0.44820992671255594
-0.25375179386577545
-0.22727440188349604
-0.4079270725356479
-0.4642005341500344
-0.4141855286060998
-0.20589648093973048
-0.34030415085573495
-0.5530859400371976
-0.6760286147598081
-0.604513926325739
-0.4592963998778517
-0.4361529043771957
-0.2570125478062548
-0.440921291644278
-0.5410036958807642
-0.5631216056316929
-0.5339700000000001
-0.44305940170750074
-0.43010126108851315
-0.29481779480608944
-0.4319314120601954
-0.30374010509815136
-0.39677001842529447
-0.3785204259615893
-0.44470566139728146
-0.5543472855105709
-0.3624887157891418
-0.3437560467892242
-0.2775144213329686
-0.5066832604166667
-0.3922495169990934
-0.22527426104532464
-0.3655507073775573
-0.34404324412454906
-0.320482
-0.4323731047737135
-0.34113614433628797
-0.4435966666666671
-0.42899413933494573
-0.2447242998877783
-0.363553845757358
-0.4328488585069446
-0.443470137096913
-0.42605475821450695
-0.29148324302350476
-0.35200246371154803
-0.39169612399255954
-0.35270048647940366
-0.38659079996679685
-0.4675344815446744
-0.44932946666666645
-0.4815325885283232
-0.4989417792932419
-0.45441777819386736
-0.35981696516972045
-0.30848092564099105
-0.33430666666666703
-0.5131200554826154
-0.5388242047329262
-0.41100529036376615
-0.2739259451402872
-0.1538909956531027
-0.46149190411242014
-0.6185217243776632
-0.49840873835080396
-0.33151855347098996
-0.10501093851273173
-0.3963918445068663
-0.48665293759137257
-0.5379855447157083
-0.4949992578434597
-0.38581988387052646
-0.15347364417579443
-0.40597565202727753
-0.5328289032349973
-0.6108861774030213
-0.4893125064987305
-0.5024565028701744
-0.3469552165312646
-0.21192120000000078
-0.3789211691891165
-0.5943682007531005
-0.45071666666666627
-0.41106062887887496
-0.4579586481185766
-0.25858262839429563
-0.23990034097954197
-0.1964821178744149
-0.39232650184165707
-0.31999948369864933
-0.49182934818386964
-0.4813982108830881
-0.3507413076068784
-0.3008463740112586
-0.33662644563476385
-0.4754256857638887
-0.3618129674934966
-0.3111152852113175
-0.4104080057863196
-0.43287009251776626
-0.40899186666666704
-0.4843139098987396
-0.4021889730023907
-0.55771170076462
-0.5690122152856985
-0.5273162502793934
-0.6336675511469312
-0.6699779167203034
-0.5840403378819685
-0.6542444410002067
-0.6893105826948212
-0.6027912323080703
-0.6519724609819122
-0.6935826680047158
-0.6307271036923922
-0.63876
-0.7134531824663649
-0.6201991683716697
-0.22946568981194485
-0.43762398853425694
-0.5417965067733082
-0.18530821423071556
-0.35973586038547095
-0.46111611529369817
-0.4833776684549364
-0.39506702570006547
-0.45191307063442826
-0.4698392987666397
-0.28984993374765367
-0.30005811680522754
-0.2466886666666669
-0.2921065212607398
-0.3900701585669568
-0.43084667653424796
-0.3465444946562774
-0.47870956566730793
-0.39268581143092485
-0.3856363828807609
-0.4124993904861575
-0.32162546863216696
-0.1242416099820202
-0.430451333333334
-0.4162558025972591
-0.43477817014714515
-0.3611660612811773
-0.12293743020833355
-0.29002600983735394
-0.5676080246284146
-0.4799493662476389
-0.40057066975284
-0.18951832940690258
-0.2469456527777786
-0.5387178116306225
-0.5507243707806752
-0.5687738094647655
-0.5082209496094161
-0.5533615555782704
-0.22503390514569163
-0.25929861333333376
-0.3981085942627609
-0.509099159209429
-0.5109619862676579
-0.4946831961997808
-0.5072585238084742
-0.1750275733333333
-0.278122103327134
-0.5215009680185568
-0.4177857449886341
-0.44161028012416453
-0.47001152416574854
-0.3633268729022452
-0.15558060260384335
-0.23283569262443604
-0.41075652888391184
-0.38113063184074564
-0.47925930403273104
-0.43505038850438543
-0.34331370251524346
-0.3890697817648269
-0.3958231554504212
-0.43145505616798435
-0.4374750719414369
-0.4017598619519022
-0.4543019509962898
-0.4977077589241797
-0.5214432242198794
-0.5707344462453551
-0.34848037404422477
-0.5448053623889599
-0.6725189721573736
-0.41433306627593297
-0.5971790879181644
-0.7406562898239998
-0.3642410622112631
-0.6003844817378038
-0.7853557236286067
-0.3638049961904138
-0.6293967733817376
-0.7948300911458334
-0.6600492219706846
-0.46772283566382783
-0.5235253275470144
-0.21700551952882827
-0.47417336914911407
-0.531203849603502
-0.6395694153151182
-0.24043893694230564
-0.4058374493004074
-0.5481890090573583
-0.44181485192008796
-0.5763476345939244
-0.36754647218444275
-0.5399944491075112
-0.4273249949446784
-0.538068637594609
-0.34192247179717694
-0.23030138733898212
-0.30322240000000006
-0.22345026297245676
-0.4549419514503034
-0.46765788894113974
-0.2822961223255493
-0.3916569577824558
-0.2806500534224128
-0.3615999581401115
-0.46291719498366685
-0.3038287084816876
-0.2151490134044269
-0.5523468981194469
-0.35321310687305457
-0.42209544722899445
-0.36710568485988726
-0.23297298906250022
-0.4713229136062686
-0.5844394979223752
-0.40815258191745224
-0.3943648229110703
-0.2708914984500932
-0.4847258803749857
-0.5583515090008399
-0.5925402293862368
-0.5397796590204582
-0.5387512356102347
-0.614916172410108
-0.4730892417772095
-0.283403248
-0.39263189072106147
-0.46842415275412647
-0.5153667810413279
-0.5384451549438806
-0.6377477068829124
-0.34830333920231554
-0.2924717428394298
-0.49384557238862153
-0.4455434779913205
-0.498435617889084
-0.5500268876696969
-0.5086282609076954
-0.23001652415529603
-0.3296333909767753
-0.506569799900806
-0.48251128976114144
-0.4559830806670699
-0.44321281983405864
-0.41261244400406033
-0.49454628850313403
-0.44043135646124304
-0.427366321513678
-0.5102287651636682
-0.49300313514938326
-0.5121255801341319
-0.5673274962746248
-0.6523376311221326
-0.7098547832878322
-0.3601331070469111
-0.4846601563290173
-0.6066319963502257
-0.7504490157965603
-0.34641286268048205
-0.388090748119063
-0.643980564058761
-0.7883567677154772
-0.20766440400934894
-0.3224162272465849
-0.7035486868972494
-0.7602255300681958
-0.1810997743006779
-0.3702381724656034
-0.7286560963696652
-0.431000733181449
-0.31078876338022227
-0.42808754184748915
-0.31385685430874194
-0.528154789462621
-0.5464413084480332
-0.5692050175934108
-0.656002496011573
-0.2960983143900249
-0.5086899606888978
-0.6348076238755099
-0.4543529488746488
-0.49729094081856057
-0.5613497837663529
-0.4468808591824176
-0.3084680697782327
-0.5169695487752756
-0.6749869224379185
-0.3921193281670909
-0.2804111074602193
-0.4720615379210588
-0.34480319141115534
-0.5423561020071994
-0.6317420392944194
-0.3372682007026244
-0.2749534375748101
-0.292123791343505
-0.4832297759371779
-0.5897133954742785
-0.4671728719725703
-0.4259820996559172
-0.5652257515326858
-0.3999547601897024
-0.5357177541089744
-0.5227477792977276
-0.48117182502357264
-0.5132727064897007
-0.6009294292209135
-0.4811528100585915
-0.505834633362266
-0.5212060488313922
-0.5805313038328088
-0.5841619925859175
-0.5965615127092373
-0.5619202455564307
-0.570822229008432
-0.6442638646920424
-0.634215470009059
-0.4641192798016131
-0.4809420268733833
-0.5361242064431294
-0.5663513518489763
-0.5821007308376598
-0.6908911055437025
-0.5221346039402075
-0.39198399809949874
-0.5411994484730583
-0.5237987301095272
-0.5351557830417667
-0.5943025364995251
-0.5940823906096301
-0.3627099852841567
-0.42963480711316043
-0.5653341777640007
-0.5140799788977563
-0.465573173581556
-0.5085366083386954
-0.48914253123099455
-0.511625723604713
-0.4784965459089232
-0.4960736438838414
-0.5127719222809458
-0.5939267725175186
-0.5923902144191772
-0.700314155911064
-0.7342065894606326
-0.7711679131512702
-0.4379525831783437
-0.4424792635708508
-0.47764937046290806
-0.6590091239286688
-0.6228050214780366
-0.4015698843551802
-0.24424561009210508
-0.4044554574691725
-0.723671144282278
-0.5714296000000001
-0.22412790175902156
-0.1392282929758499
-0.4119062295864501
-0.7151272816038575
-0.14274707855415986
-0.1759988384193495
-0.42834168228682484
-0.24154452737820542
-0.25234978562081384
-0.40109914238479016
-0.40864199999999956
-0.6225544755851042
-0.5441893229753804
-0.49025866086809183
-0.5879024622376812
-0.47396005033521316
-0.3311733982227731
-0.5835385891251779
-0.7600426963619173
-0.4842760118925949
-0.41451918730954485
-0.49481779354515815
-0.33878784178831906
-0.3383684554885795
-0.6881786588955872
-0.7724001892361109
-0.4971742120111469
-0.4574718982506613
-0.5739412089274641
-0.5586611477868183
-0.6844415901623416
-0.7865869328373627
-0.5149587049665918
-0.2904444111196622
-0.4236503774064672
-0.6501810933333325
-0.7394964278845144
-0.6879179683459214
-0.5076452583112231
-0.6022686666666665
-0.5242393234139281
-0.6641051412688571
-0.7234842892920385
-0.5500980083953296
-0.5619179343212023
-0.611440275539023
-0.5807784776503987
-0.6503447772386544
-0.6036933138988002
-0.5848233697916675
-0.6204858559319137
-0.6315108437464403
-0.6719441795767925
-0.6453920108128736
-0.6366320939440974
-0.6118393612316599
-0.5481348175986777
-0.5648568579956345
-0.6459520081121602
-0.663637678883449
-0.6141949541860118
-0.6274484512699705
-0.5376890133333342
-0.4583148021029793
-0.6277793403433765
-0.5877285023255813
-0.5700770536360462
-0.5579515467475707
-0.568474352689949
-0.44380545691258527
-0.4987890678201384
-0.5021001569797838
-0.5067892010364491
-0.5436277137717725
-0.5985655468006891
-0.45803257281834314
-0.5117771550099058
-0.5410141745433498
-0.6097047583185288
-0.5683456509413078
-0.652040705990471
-0.65807060764012
-0.7567367100016892
-0.687671505695091
-0.6365030711585944
-0.5647311111111113
-0.5036113029229762
-0.3652076431318445
-0.5050656818328024
-0.6062901052411113
-0.391119169249845
-0.5876896493765925
-0.26279119957817537
-0.2248377907709945
-0.5334471273443543
-0.5593352531713062
-0.3790269456499267
-0.134617575753238
-0.18067871853808548
-0.5137659647868443
-0.20818436247158403
-0.16401293440700038
-0.17358581063365364
-0.22117535875182126
-0.2609295438415154
-0.3775133333333336
-0.4360771999999998
-0.7333161022588714
-0.5890690896380595
-0.4148069897426752
-0.5145795171650017
-0.478317608709203
-0.43194870841840977
-0.6200401593403183
-0.8569804615162036
-0.543813487849778
-0.37238150582499857
-0.44234716612046293
-0.33815529357876656
-0.43181507737714137
-0.8065932151959766
-0.7949192406249996
-0.6449586807716332
-0.5927854027548173
-0.659866
-0.6025483794392111
-0.8174264986147991
-0.8171586952262864
-0.6564146222222219
-0.39477377438037964
-0.5470930653716329
-0.705519184
-0.8310583241027382
-0.6536799651831623
-0.5629487903527809
-0.6242088888888887
-0.5884595873527588
-0.7238811037722885
-0.6819225890477333
-0.49332118906250005
-0.6236272461611594
-0.6127690918302974
-0.615817567801648
-0.628747661602972
-0.46284166224426554
-0.5807518026620375
-0.6703541087766607
-0.7275757354505723
-0.7839037082088297
-0.7408569544200126
-0.6299181255544308
-0.5142365461183444
-0.42795116799999994
-0.5383592986841822
-0.6709572773424693
-0.7466468208959083
-0.6425570408286512
-0.5316444813159814
-0.46445555555555623
-0.41611001314321155
-0.6830252699633959
-0.6153399999999999
-0.6289040927854495
-0.5124191264279842
-0.4730247133277743
-0.47827302748501815
-0.4795274989984047
-0.4368646366964554
-0.5294541693639944
-0.6520347249250502
-0.6862419511439023
-0.45217945010497557
-0.5305966418786608
-0.629531379486961
-0.7361084635416668
-0.6243534175201697
-0.6400640665472003
-0.7155998543087416
-0.6376373903995887
-0.5972244
-0.44817125232486055
-0.6521873333333342
-0.6654270104960269
-0.31915941459327607
-0.35958776005602383
-0.5704058451835295
-0.39595914837249835
-0.7336040702624514
-0.4012343458787673
-0.15222403829941744
-0.34152171990480507
-0.535330682661707
-0.5081853037817731
-0.2246686336428719
-0.1257972616757406
-0.3067113959146642
-0.27747241971481623
-0.22326249393365857
-0.12737134335767994
-0.2336339857813051
-0.2697236626356587
-0.32511199999999996
-0.4826640086794794
-0.7766927237894484
-0.6781494651843185
-0.32713702040232295
-0.43706917761799785
-0.511478620649707
-0.5302238086519211
-0.6794880676165485
-0.8356955251736111
-0.5838438337947521
-0.30780873353063476
-0.44710824525849624
-0.34019861131962553
-0.47805337427843336
-0.7671169421368044
-0.7990968728815244
-0.645891108455542
-0.6454149475098155
-0.6715806666666664
-0.5517459282787202
-0.7316376002538959
-0.7632025778555537
-0.6548804533333326
-0.4494447012773924
-0.5763082880760486
-0.6513790340318247
-0.7337409506257232
-0.46984585846712074
-0.6142138440076881
-0.5688291747606257
-0.5634157477276676
-0.6622638903034784
-0.4413084028810788
-0.48085265277777767
-0.6331088699023387
-0.6546391441701135
-0.5600116666269901
-0.4254804679479236
-0.35084086960115707
-0.5681684521353206
-0.7108828983036019
-0.7953485886554496
-0.7728523637767643
-0.7748688908631535
-0.6113737510331115
-0.4459324323926879
-0.3116363733333331
-0.3866236639305796
-0.6133400830801663
-0.7591231371100319
-0.6565923474092691
-0.4608024231795138
-0.4161487217744721
-0.3669424926637735
-0.6935218844457252
-0.7027099927688223
-0.5199589640038164
-0.40269925891386465
-0.49826005178314353
-0.45828354817753897
-0.4683907903338848
-0.6135259382200395
-0.7295576694250263
-0.5361868640378716
-0.5471792658113551
-0.7050652923700474
-0.5535651764891584
-0.6106339376196085
-0.4785266567553593
-0.6818103551009171
-0.7665710622056774
-0.35734909869544046
-0.19924989736683116
-0.482866925851513
-0.4808177407390891
-0.7455618442708277
-0.5252672308092414
-0.16955685407132137
-0.19669767213119868
-0.4539221072535647
-0.5261556134201381
-0.3130017565655772
-0.1630743660466907
-0.20199528320538815
-0.30143938456744795
-0.2555751006619597
-0.15686819878472216
-0.21333136970673947
-0.2865878975999802
-0.3631794533994631
-0.5267381184128953
-0.7669870891879237
-0.7072192383288786
-0.269390263274718
-0.26578115874993663
-0.5268160357834207
-0.5399256457945861
-0.6669598361573628
-0.7495144301513056
-0.5661850798187711
-0.2288699370117794
-0.36471587220604146
-0.28930872266587343
-0.4677395037817747
-0.6335939550030926
-0.7189025506410597
-0.5211006256120143
-0.6113609537094432
-0.5865581314321144
-0.5174110831541027
-0.5077272494330458
-0.6471089496385609
-0.5392711147895556
-0.4478584964719528
-0.502071539985123
-0.5433077268030592
-0.5196742611346358
-0.38588023986739267
-0.5908746641205999
-0.5691582661706963
-0.4743949873671856
-0.5116041204381071
-0.2978787926076023
-0.4720961503937194
-0.620028370920028
-0.665812337023813
-0.4212725933822972
-0.28282308923331273
-0.33423336050548696
-0.5078436093392127
-0.6740667730634743
-0.7578050902899731
-0.666195294482331
-0.7528149058709066
-0.5683008769773378
-0.3709437521083416
-0.3278883615292411
-0.2761787263424314
-0.71674953467363
-0.7010523210357887
-0.4516940004954327
-0.37473719648687775
-0.42667839895394183
-0.7457469330555878
-0.6077303437920915
-0.4290829989670615
-0.502808692619009
-0.5057136184197383
-0.5271196573866662
-0.7149861854158973
-0.5329405444247649
-0.5897923753668115
-0.45420819154006375
-0.650929356271958
-0.741179147402523
-0.4397351755455348
-0.10691840137778447
-0.30795591397323013
-0.5126601146316218
-0.6725750975648159
-0.5392171997343738
-0.25226296617274085
-0.13939688807935915
-0.3228165268030578
-0.4816848569422063
-0.34098722667714454
-0.2127479988635876
-0.1754780657160571
-0.28528732080130365
-0.28354945546727434
-0.17201611979166673
-0.2906709388682371
-0.2840554282754299
-0.4439452593511054
-0.5002556
-0.7077938244533271
-0.6367312948170999
-0.29559475819432834
-0.11717525012054834
-0.4216217763234545
-0.4987442140249367
-0.5576045391530785
-0.6411553785665801
-0.48155883214332756
-0.22335996805951638
-0.2401208569697091
-0.2598105019896078
-0.4019416465978603
-0.48087284650238615
-0.5735450052083331
-0.4231682839327688
-0.5691459330980403
-0.6053284755114693
-0.5033795522959698
-0.36466365787291716
-0.53598508183509
-0.36014361266101846
-0.39335788348472484
-0.32836685334136595
-0.4662785280000001
-0.3654882757411071
-0.38115078178502065
-0.5866473136242637
-0.5804652910380932
-0.37150596156230636
-0.3811717230281728
-0.2925451308482084
-0.4272486776144994
-0.5713956033958242
-0.5978278966438167
-0.3015636865669297
-0.30772798423539244
-0.2901306776975589
-0.4474414908082805
-0.6143890624455287
-0.6617571667699939
-0.69481245062505
-0.5965363887051889
-0.3381031487513351
-0.32720436495970245
-0.3471806568585664
-0.7246421169630864
-0.5474065598603647
-0.343663368216574
-0.4800148294475796
-0.7013738315065634
-0.48988408448518506
-0.4527828341637727
-0.4831965089694404
-0.5753726893986361
-0.45229656997796497
-0.5674286666666671
-0.6618578716178125
-0.4545314733051255
-0.1526404898196825
-0.1710319648992247
-0.41272813874969877
-0.5794078495556935
-0.4949676977367012
-0.3070686309956541
-0.1676485150214582
-0.2224182666666669
-0.44397866398016106
-0.32447920355712684
-0.26661004392562915
-0.17060854432734038
-0.2756255499070049
-0.303041376178344
-0.2483156054808592
-0.42960341365924043
-0.2582887466666665
-0.4335800000000001
-0.47688866666666657
-0.6273125216277099
-0.5296900729385575
-0.31229735688731264
-0.1217739911204792
-0.2845634953628813
-0.5244046351883828
-0.4687940956455243
-0.5885067743055555
-0.36179190259934013
-0.24118267207804878
-0.20773005536169173
-0.2575010164747672
-0.27693621424061104
-0.4567971585038228
-0.46170255729166604
-0.4299424834591878
-0.6605322986052952
-0.6517085552800167
-0.5733904329152958
-0.34640197994501576
-0.458317895019632
-0.308716026666666
-0.2665162053865818
-0.21326686794792252
-0.4300988266666666
-0.31690991577258454
-0.4051081623216995
-0.590464844735802
-0.505018362101637
-0.31850668319900793
-0.33497348436485574
-0.293340681376822
-0.4083670402841281
-0.5114386756808336
-0.531992114073155
-0.30704634736197123
-0.32424204869930157
-0.26183784377129565
-0.4991874394361899
-0.5626728111636501
-0.6215761317873004
-0.45262328446744843
-0.25644807557759824
-0.42730620411477904
-0.630704362276205
-0.36569779027734767
-0.3792794112371229
-0.5261031961148994
-0.3342197472946192
-0.41750851331023836
-0.5285722222222224
-0.6304059051341985
-0.40146734987039717
-0.21486685177952428
-0.1629661316134365
-0.2937492147137841
-0.5407898525866228
-0.5206406002578329
-0.3022067315164352
-0.2134735785370638
-0.18111016
-0.46028531308121506
-0.36372804629530875
-0.314421996573742
-0.18630313111995497
-0.3315157222566643
-0.32108770178470963
-0.389918579584226
-0.46590597544795104
-0.29795897433247237
-0.3969666666666666
-0.5432220934077281
-0.5829489625312584
-0.5521089560256945
-0.2747956277906454
-0.17742156858868807
-0.25431879912442634
-0.6377742359752796
-0.4765657215227079
-0.5892122352430563
-0.4064531760678987
-0.23440639812990052
-0.23783013465887282
-0.2628335921507214
-0.279249651729696
-0.5309217668939871
-0.41893634594462514
-0.5287339323929116
-0.7226500363606244
-0.5713117436692512
-0.6318564824377533
-0.40422193260537637
-0.38732944811485365
-0.418091822222223
-0.19912476820091726
-0.2781252993042643
-0.36987920818350944
-0.3292538094229274
-0.4411232639096329
-0.5411635740960475
-0.4503766666666667
-0.29797647958241763
-0.3248171147020356
-0.28805680402554595
-0.48404598647017627
-0.4748560964721929
-0.3544589304431573
-0.2579785043811642
-0.3956869150998903
-0.5567581510416667
-0.5720317451952884
-0.27276753872868204
-0.34602938618755535
-0.4396932000000004
-0.23153361190072316
-0.3155932899359376
-0.5909989157539431
-0.635527511913669
-0.46906624662814506
-0.22815949040434594
-0.20278910481633047
-0.26293858276503407
-0.5945718320769869
-0.5758992079477109
-0.3782702587892641
-0.264044460444017
-0.17049306488944005
-0.5417792505957798
-0.4497501434324411
-0.3791196515732665
-0.27708415426388683
-0.44134948270986113
-0.3779742263901476
-0.46750281510416686
-0.4344592413251491
-0.392021108416809
-0.4069541454846041
-0.6135917073775573
-0.5807199394936107
-0.6382256357766973
-0.3646057050287706
-0.21920517475318144
-0.2998708372560871
-0.65230360324595
-0.5148458570997465
-0.5469393609835679
-0.5561467919088051
-0.3082972596900185
-0.29556279475194713
-0.2890615905474315
-0.4315944337810849
-0.5036162203933822
-0.4202425715508109
-0.5703133569065207
-0.6527320303924888
-0.48788000000000004
-0.595819082833291
-0.4515056956606061
-0.3536198888027722
-0.45557385512158194
-0.2989686338918725
-0.3626010064272083
-0.31488820540607576
-0.35139798462712785
-0.5073311951326746
-0.480059881455763
-0.278492499040845
-0.3136545923455581
-0.39949667738781636
-0.5509888958333332
-0.35461046227694654
-0.2911511710535535
-0.5562808127712336
-0.4083278400000001
-0.2602921494381921
-0.2777720719156851
-0.6229760281049802
-0.6312436734588261
-0.5857937935763355
-0.33198153000836483
-0.2612796244772329
-0.2945826193537297
-0.6127175499945102
-0.5962342408288026
-0.5080923542701735
-0.36623691916364276
-0.2404784799752009
-0.5615165624330983
-0.4961092262200412
-0.467105607863642
-0.37900766831990085
-0.47650581927398833
-0.41756567385200793
-0.467032105034722
-0.41544036194337325
-0.43349163162387
-0.4334530223186609
-0.5313105680925805
-0.548911719092711
-0.6098210909808657
-0.5189203890689379
-0.32273804399256023
-0.37202747532578734
-0.5917361328501799
-0.46497896429546176
-0.4644193263487962
-0.5574831901412184
-0.4407070392643113
-0.3619153692738802
-0.35990821785357113
-0.5143045551457228
-0.41256039659875016
-0.41933274398980497
-0.5402471226010767
-0.5722594120686094
-0.5136999642547952
-0.4902434768949943
-0.3815187262502296
-0.39197110646827915
-0.45382242434389836
-0.3405840019348379
-0.35110055204794405
-0.4268998023539114
-0.5486599141308465
-0.3275961506355873
-0.3837105663571754
-0.5506172130330684
-0.3921043150360903
-0.45437213548253824
-0.3624128974651485
-0.49780998484535294
-0.5915639281055539
-0.589994072018404
-0.49910724472998597
-0.3707297699720928
-0.37485284322576884
-0.5056137402880709
-0.5838344329933439
-0.5448048370821202
-0.5026640900574738
-0.35193751999999995
-0.46684242272020765
-0.4857855408093313
-0.4942801450697208
-0.44575842632775403
-0.4162196285652178
-0.4079040495403768
-0.4429137347081226
-0.41610204099257536
-0.43627489685399556
-0.4905213401529245
-0.4318080785529719
-0.44687790020641155
-0.5370519146523836
-0.5496473539868637
-0.4683385705586561
-0.4403850635502558
-0.5658767451952889
-0.4014990856330145
-0.4182234781639808
-0.5045173009704774
-0.5238496141890637
-0.42614121417240075
-0.4972768759630392
-0.5179879345622656
-0.4136313609170019
-0.42647855266230633
-0.4967913627403678
-0.5204048058539668
-0.44474944747409156
-0.4068044948267555
-0.520318686182894
-0.34538282750462873
-0.4610245097260978
-0.5396228419045529
-0.4643253446583709
-0.5291546040504232
-0.5118664486906145
-0.3937408106804483
-0.5186661148819808
-0.5849867240203874
-0.5721799350519773
-0.5074836156416888
-0.4504105257284562
-0.44912352312781617
-0.5367477004128928
-0.5395123148260078
-0.5743869211612989
-0.45191666666666713
-0.4415907541179465
-0.44455970459623734
-0.4742163731704457
-0.4951460277071736
-0.4164274502613079
-0.4015991880231755
-0.4352599172131703
-0.46248058833582034
-0.4717430383706101
-0.5555064754521961
-0.44237
-0.38904652242267906
-0.5287238663416516
-0.5918007400525555
-0.5682018921528301
-0.49278566318601064
-0.40271931241862485
-0.4273464333225671
-0.5426320482859522
-0.6208833091525802
-0.5255386414892247
-0.6536003190938936
-0.5400928543824256
-0.4616462165604294
-0.4473773984375002
-0.49786731370117815
-0.4762273434625322
-0.49897530804005874
-0.43349834117434044
-0.5461849599999998
-0.572542147551147
-0.42809666666666685
-0.5013548542694046
-0.6210243625206145
-0.6182951158649455
-0.600506038859118
-0.49548356685265565
-0.5233489729282903
-0.530690551097111
-0.5491051022393377
-0.5961378950949355
-0.5542014246745187
-0.5736687476751395
-0.45880583405323877
-0.4793980044530309
-0.5435550455430517
-0.580163246538541
-0.45808829434158743
-0.48616250178938974
-0.5514327692535134
-0.5963164878552972
-0.61732
-0.41789681815363683
-0.5512509449256998
-0.6908054809486773
-0.6667808527308664
-0.5467265351566378
-0.436802604166667
-0.5644930804562088
-0.6987458254751289
-0.6735095661432274
-0.6791748006872077
-0.527974636532676
-0.4507222390989875
-0.4798947999999996