<?xml version="1.0" encoding="UTF-8"?>
<VTKFile type="UnstructuredGrid" version="0.1" byte_order="LittleEndian">
<UnstructuredGrid>
<Piece NumberOfPoints="672" NumberOfCells="2649">
<PointData>
<DataArray type="Float64" Name="u" Format="ascii">
0.4355097591197015
0.3711333597941148
0.410259405527272
0.27230039018685837
0.11334848971481537
0.21715716940075627
0.34619199854453303
0.2631383253652885
0.3642838136706723
0.42727534497367
0.6513915719742257
0.33514449403882957
0.5302523391232791
0.6865258507862781
0.6170873866089662
0.39300427820038913
0.8198977866577427
1.2500162856565622
0.4481633965890033
1.1774946438351068
1.5915616508094201
0.38909822250996534
0.45776082850807176
1.3974466509573669
1.5398142780028314
-0.049719696676886145
0.04191192287969158
0.13741918308290194
0.13301767789034355
0.4178201414016524
-0.051363816282191006
-0.14510304203981653
0.03762450164398435
-0.07649197190558409
-0.06742650762666845
-0.1519774399153391
-0.040139207651055754
0.5675214688476609
1.023251684577284
0.20630864625688702
0.4564308926245175
-0.13665761082747083
0.43828067108823815
0.9918569756684265
1.0159244550170718
0.7817946967159698
0.8226811810158575
0.47919278514578595
0.6429137875751467
0.05033872862455446
0.05661160559072619
-0.26881498775847157
-0.54042465880134
-0.2728960951414973
0.5234651358667921
0.11515220646188193
1.1653633340858922
0.9528950550913089
-0.04306438794026381
0.11528370683595726
-0.2716462847715206
0.23361456763963553
0.6472671536053921
-0.17914097088673733
-0.10867886191434925
0.6778686426572674
0.39889405103558145
-0.034802944201418565
0.4356246339006597
0.30044330925288326
1.0437589141167591
1.1301320045665266
1.0898813334349247
1.2049126908099195
0.5737350477703337
0.08136470431190311
0.3305607743618271
0.6650805490598449
0.12547853395245567
0.1599893910645549
-0.04623511005521518
0.15016156160036884
0.13039686813525642
0.08781954095019719
0.3499283002430085
0.02781448123620748
0.0133015290173973
0.43820806301545906
0.2321696320897038
0.4756145871001375
0.40331954922428354
0.9739351725395861
0.7533311708181766
0.6005719945796628
0.6262625877083517
0.5507686546929511
0.6384331162653484
0.27956668196659284
0.21929564697488027
0.6042547681509238
0.3601652926550765
-0.2634759643867238
-0.4184625100825071
0.019937847204723583
0.043681816113538156
0.8803905014559499
1.2066557919204501
0.9765605129953613
-0.002000533116810418
0.49939790142338764
1.134092858663813
-0.05610960980308762
-0.11182912526829189
-0.06724943566816591
0.7619023542788527
0.009061601955400565
-0.1607153889740318
-0.19915347848442663
-0.23121924171846892
0.8962552637157858
0.7884178550281479
0.5174804117161363
0.3270924934800562
0.5215880221949927
0.7564705349923717
0.7427271118452105
0.9678870082370599
0.5815143945919167
0.9417592898626095
0.995875516756753
1.2986494300644844
1.2209177155573325
0.941641922413067
0.11764798008358492
0.28212353987846234
-0.1123975991694153
-0.29520992069052593
-0.2925862317560758
0.9774166098386919
0.9353261620847229
0.8617751603112558
0.710701160784943
0.639580057910543
1.0876040113336456
0.7856447724575145
0.42100799987197857
-0.12267970660424668
-0.3351461810260305
-0.4011788997392288
0.5571639255672408
0.7173591325120368
0.3810693262319794
0.2553698089299968
-0.030688894777626093
-0.31866494659868827
0.1837650121390137
0.9831014619149168
0.9292436976176597
0.9451510140870385
0.7347865111474803
0.9313724327515699
0.7648364330550741
0.9707694460714522
0.7127013535416448
0.8509759042800281
0.5529706647474498
0.31436032896001814
0.39984932462027767
0.13719164097972783
0.4862963187101625
0.44622640950798004
0.5914514678141495
0.4875395089623509
0.6342173954129093
0.5508713356034435
0.9126014862197611
0.9511283123548767
0.2227760039130238
0.502819686315958
0.20530054367308753
0.863024200486298
0.8569059783807961
0.6548949468691663
0.8025626856297767
0.6035833545779478
0.1966608152185816
0.21993413809386017
0.704908303262732
0.33452750201513576
0.7740123352158036
0.6287519795062029
0.7650655953655682
0.7260219108611176
0.6437511601911013
0.6679152681157106
0.2880977413396697
0.479726866608067
0.45822113600250775
-0.013368690503314542
0.41171997231954466
0.019560555243163868
0.1383338123292194
-0.12922583411131708
-0.2606993877445984
-0.10834878049904491
0.22381785701275989
-0.2523485606744073
-0.17937677082876624
0.1540672875473934
0.2940446571189152
-8.622217063955982E-4
-0.08912539335097427
0.27185174016359254
0.29499636092470227
0.5896752360464296
0.23867743996486543
0.10194704821245101
0.9186325610309435
0.5915278508867011
0.6438037419191637
0.4213139158451362
0.7842253368992259
0.8735096259290591
0.7954434669171668
1.1405174236801616
1.0250223963703537
0.35626114180081164
0.14928918712513028
-0.08239107933816882
-0.12988019267813788
-0.10002204295186058
0.6141962520921539
0.16898214814658585
0.23193058054163712
0.23866261275428255
0.47223427113122096
0.34244953128448946
0.872301569060829
1.03851067017883
0.6192842477847347
0.7232307746131024
0.7946682789735624
0.3843919093504387
0.9272869623152832
1.0397978696649746
0.8684941603854229
0.23629996347685142
0.2676333579869352
0.31419929801576263
0.723205627488076
0.3451949285403699
0.42716639753635566
1.1181111736473943
0.5800249557469518
0.82681174437756
1.1481392129499208
0.6461449437993255
1.3137921066153933
1.1287848862514436
0.9062356141277875
0.4351867054096667
0.45399081666232294
0.22378212090709407
0.43660893517419147
0.4318367113243671
0.15632908990706093
0.052973722796832864
-0.6715588131794855
1.1084130816790132
0.3882325386575356
0.45040991350820303
0.5245119639289183
0.835483025827099
1.2226051000544096
1.0920389163433148
0.5035378141558763
0.7768754369555423
-0.0529361141575242
0.14495128928909903
0.8757123469955773
1.0124964488698285
1.0624315279715693
0.39382284224131775
0.9523091115363115
0.5669811061174582
0.0027621903710557064
-0.2053058753787426
0.27001290517737303
-0.3326002571438624
-0.47983513303555364
-0.7971505687279047
-0.3362464108079345
0.29543724123678883
0.4622144568104681
0.46908083867689837
0.8615316403802636
0.6564757366134886
0.9470199697300784
-0.3907995430333315
-0.2619047894491811
0.5931468473187741
0.6546936418298084
0.3781742803105448
0.5499278403523641
0.257103335432448
0.6352372765208254
0.3857758764808574
0.4107366401715086
0.3635912100582375
0.5098809021109332
0.6137582278757692
0.6282225147245764
0.14817997725481516
0.47255854586464896
1.184417208246211
0.4264594726753772
0.10175862725393828
1.1152524839662485
0.2995258952202084
0.42803479445609594
0.9079603270104534
0.9576259374917945
0.7071070577326602
0.21277254291593847
0.24639242922870205
0.18570577791969403
0.46666994267401213
0.34084314333705845
0.1519105328210222
0.320494752552205
1.396286919935
1.6993948681752342
0.02600443606610791
0.09765720567755488
-0.03863706149714601
0.3988755945018512
1.089136580458128
1.7993084970425783
1.9985871411861011
1.6311773333355533
1.6409965595606892
1.220620676464261
0.9384496029761494
0.09255554611124976
0.28541981179567255
0.5281979640435052
-0.07271115109789163
0.06012771170115731
0.22911407357512542
0.1497184954019557
0.17691393404706315
-0.09823161777368082
0.5700304877771714
1.0731944324272582
1.0071848525045153
1.0835176307272645
0.8780412562818646
0.86930730068346
0.984017690053732
1.129460619211835
1.1168105056286386
0.9809728124500343
1.1681691801455096
1.0481356459349214
0.916887440798522
1.1326842921573064
1.1218066352370906
0.9715525188270129
0.909317555019496
0.8837364777277417
0.6442917752812387
0.6138860736787051
0.389950692968271
0.3194688994611124
0.5416003401916089
0.6104011488209592
0.6245706285015632
0.5512782889181528
0.2677599492438652
0.7712137141224523
0.40518788620802804
-0.0817805241812584
0.07024801876449233
0.029327310058634367
0.1825892658324322
0.16608254514134876
0.24830752888280821
0.2120297072256858
0.31872888627915885
0.5111493659624265
0.5649524272787321
0.9041950542182887
0.9718082190450419
0.7933737515658498
0.8787410223774612
0.43319328550419295
0.7067919654220302
0.7818677826263409
0.5785793567361298
0.5678945588267671
0.4979489665558391
0.375833640473381
0.33982193769894936
0.5541927030103884
0.6852493044068791
0.08367993678763115
0.43017066208497895
0.08847293059527836
0.5764390661270743
0.294860739436321
0.383888596326489
0.3431600295315063
0.5326193188545104
0.4104419153950331
0.7471166321770205
1.000038104724648
-0.12397996594496295
1.0152632503322325
0.9140897147884015
0.36946885658395084
0.154181907957955
0.0432011418074304
-0.061132891929068116
0.18230948233007988
-0.08796188850111618
-0.2275286862545148
0.23033715380809078
-0.11202115216333876
0.011688172564176005
0.49264749174331074
-0.046242096312496206
0.8391422316855733
0.30085494500360555
0.6236698576275942
1.2085745243496853
0.9103520152329703
1.521858140297507
-0.05711233093807321
1.1585542852381565
0.451896240505287
0.022638706736914194
0.07202286025689092
-0.09520002065277473
-0.016267050699735722
-0.1857799477651637
-0.18330099115841758
0.017301724466953692
0.06859766739180251
0.21848935157381294
0.18991889399825168
0.25758428506367986
0.8043782967494869
0.7131997514046396
0.3896345585501955
1.0825340024935455
0.7482939153589817
1.0407325431802101
0.44883430238603134
0.46116905970726163
0.5571078563852601
0.419633093148462
0.259165578612556
0.4109407868484425
0.6155235769010031
0.3170151405036447
0.44782676435951724
0.5487622601298741
0.717354445254324
0.7235940611148973
0.4092000031061236
0.4739291686991802
0.37085449709918095
0.4751383745755575
0.5610513354423391
0.3033257192464908
0.32899906028148346
0.029219215908901135
0.9463999882275774
0.8570520815224223
-0.09902563717975611
0.36902655703526044
0.7134577082817578
0.8871877874581241
0.7341957261979227
0.9128266115550653
0.98817160239148
0.8075476943423268
1.0891933057695555
0.9603019264776014
0.8477151928138192
1.0776986263108923
0.6864143237093979
0.20089807093489404
-0.23532735359999926
0.15803740732865654
0.7799714316787336
-0.3800751351694683
0.3305662283023656
-0.434915181028173
0.9080158424112271
0.6262704639722473
-0.04911040509866106
0.3992227057394762
0.9000277548655665
0.9843995821272008
0.7424010506502143
0.9491432780025497
1.0510454829756894
0.9248908579732797
0.7994776210035217
0.539319421782437
0.742741192740597
0.6963599671786318
0.6034545328323313
-0.2090813219656966
0.2771105634711883
-0.0678860933021309
0.24171595219533598
-0.2452758740853444
0.1608135854484247
0.3942176468684639
0.41682801990142404
0.3935576861449397
0.41024210761178875
0.35558824760783786
0.6718336664006054
0.4362573370525629
0.6356236269577079
0.45774468832589776
0.45017514421876376
0.23285741115718778
0.1136274811296947
0.4270659130328253
0.39968586973095527
0.40246851742759243
0.18863139272909513
0.6989686513932937
0.46395070516116077
0.30815624719168516
0.7807023281145923
1.1283692704831627
-0.0018397568155759383
0.27121992972008085
1.0117595751782904
0.48840959387220406
0.352703017148599
0.1811662860414317
0.13661812484460167
0.1349527242109194
0.04740736634008836
-0.0321843486296746
0.16128138300668968
0.12816707705019842
0.3069557673624664
0.4195044909180464
0.5683984837384182
0.9052038477307357
0.8434928932207305
0.9690252377520571
1.454966875454705
0.9208646984359612
1.3742052351393408
0.2879850016401022
0.6629215367063713
0.951308891325373
0.5940815225071826
0.2576608788186308
0.2001886101785952
0.06990601024247925
0.20839931990114285
0.28904506571789496
0.3046473211612251
0.4025317411827151
0.5273652567757103
0.7425232422173308
0.6829829559070648
0.472057238334273
0.3939950599394431
1.0952787814526177
0.9156968503600394
0.9187899350864981
0.5730845595972817
0.5259287647213843
0.4704050905745567
0.4030432302152057
0.791781169487486
0.760309297127801
0.9685733261169421
0.36950326863887223
0.44174292315389024
0.43054761391901347
0.6092259767636162
0.8450069239546578
0.9354592050724959
1.0463951315861595
1.029366364643632
0.6586642207182859
0.4536437262485483
0.1629974753116086
0.4334297827094085
0.5701589341100793
-0.2301011063886345
0.3625773705528595
0.12605088716606766
-0.15957500296002722
0.4420864787561736
0.9023156657019662
0.17728448319217163
0.5945619026713952
0.9138540423483063
1.0062028801704412
0.6326102138932507
0.790368640013557
0.908985059946607
0.740858246681255
0.87740823510104
0.9047291097550064
0.10705174736893873
0.6902876945844865
0.5599608781738213
0.4490720398537672
-0.09694357397120196
0.18418419507852157
-0.26129640434786283
-0.16312374398091875
0.20565428040521394
0.4665459859227941
0.15918573132302336
0.2505729972368839
0.7562131178981706
0.10658031203421739
0.6719480547138774
0.9086383745716657
0.5267040259009866
0.159037877607862
0.06961860236076581
0.7208783917630831
0.2898193936660106
-0.14191526489714384
0.3278832251938485
0.1173397216684171
0.8338209088714499
0.5012744197946616
0.7506596523321751
0.5733699610550993
0.5185343768780464
0.23148148565728285
0.2281397830726434
0.391718454428263
0.5185756512967564
0.690474692684674
0.4402930581277878
0.5008663488343558
0.5176195206699034
0.9581390249622229
0.7753251257696463
0.9559648820910364
0.5040747063073175
0.3545589338622201
0.7514604890954305
0.18163534904035486
0.1590164620135853
0.5483232584207814
0.7826832303551471
0.7990916416910709
0.6146969021716372
0.3986892990429196
0.22228982544714762
0.3835842305269915
0.3719461378745368
0.4118359964698038
0.6521456816480599
</DataArray>
<DataArray type="Float64" Name="f" Format="ascii">
-0.37134807244809587
-0.4777138983663585
-0.53148946045983
-0.4910481527599571
-0.3377073677335808
-0.4127052421630219
-0.4807575109623428
-0.5616753259490063
-0.45849664607830937
-0.5229092266824023
-0.5413511791890081
-0.5077948887896825
-0.45164930339948955
-0.4561664521610895
-0.4501414572370057
-0.5318492048172115
-0.4630261860902982
-0.513528492398872
-0.5002699499388613
-0.4976034734290912
-0.47856354634678844
-0.5508732438734423
-0.5375154295686005
-0.4129387189920903
-0.3529845815251084
-0.3606113208037512
-0.4009574009859761
-0.4927606430087976
-0.5262560202724148
-0.47467268162202375
-0.3991965705970759
-0.39989057492177654
-0.5952234986005426
-0.38069305539950843
-0.44160690722997537
-0.35298458152510837
-0.438694495011486
-0.6480318704779751
-0.46029491532287575
-0.5527076352010792
-0.5383845250003997
-0.5203923621320029
-0.46169814316852437
-0.4331669931710998
-0.5934094245015942
-0.4206663806209149
-0.4837687376828627
-0.48355401892626
-0.5265210003968901
-0.6224674966878084
-0.49275078859850646
-0.4401119002369789
-0.49933523734234203
-0.5595016000000002
-0.4202969672912368
-0.45040970971474353
-0.35298458152510837
-0.35298458152510825
-0.46976162680123557
-0.3529845815251083
-0.4479034389647048
-0.35298458152510825
-0.35298458152510837
-0.46405184443163805
-0.6191381354270912
-0.4880824160415456
-0.6746763066943979
-0.5595016
-0.6493883034063385
-0.5643652183682876
-0.43178985592554486
-0.3763198785323658
-0.42727179372168034
-0.45669135178122733
-0.48796927221843445
-0.4582327124006039
-0.5210004297249428
-0.47657670212584785
-0.4602299572085661
-0.49966769648547704
-0.5278270299705116
-0.5588520308974417
-0.47667114149305556
-0.46163846564209504
-0.6244721329819855
-0.5678356504866288
-0.4186335023313371
-0.5482031321367505
-0.5572650032899676
-0.5835932662528137
-0.48332085865971847
-0.3977356862955094
-0.5128362362495344
-0.4848884846626263
-0.5202996589193755
-0.554933231011109
-0.5358122412572465
-0.5485841741727396
-0.5233905591028706
-0.5497458848119638
-0.48997519954046115
-0.3834963422194669
-0.5419310727232961
-0.35760460176772385
-0.4598090513873491
-0.36810238209439033
-0.39861563853629517
-0.3834963422194668
-0.4119295157157907
-0.5167589048285514
-0.431735925249867
-0.5240499597489771
-0.43122469432043653
-0.42651256933735987
-0.5404528817497188
-0.5072112288567636
-0.4198912235868625
-0.4235916697595215
-0.4531360040416796
-0.555805552244493
-0.45285470695099966
-0.5098523009959088
-0.405498176333177
-0.3618753863428355
-0.5019770965323134
-0.5728584505208333
-0.5642320892119378
-0.4898251552518221
-0.5575024073715125
-0.49012524382910005
-0.537556076622863
-0.5728584505208333
-0.5918653400900022
-0.5766404306747198
-0.47983729927459867
-0.54409021611864
-0.5037289905308898
-0.4400330276558723
-0.4798372992745986
-0.4085990669552627
-0.46946420166584313
-0.5304108026555069
-0.4436992712664818
-0.5786249193470224
-0.5268680804548113
-0.5020303709493628
-0.5456594252843397
-0.52522
-0.52522
-0.5447314354458744
-0.52522
-0.52522
-0.5297317264227086
-0.52522
-0.52522
-0.52522
-0.5094969538984103
-0.50717963579169
-0.5054662102390868
-0.4855523767749955
-0.6979169499405977
-0.49233958461517535
-0.5376108354536058
-0.6307864770385025
-0.5726871218050692
-0.5559676474756131
-0.5028106746458716
-0.5617873452444567
-0.5614714866707998
-0.4639138223669033
-0.5050645970793674
-0.5412503399313873
-0.5443661514677033
-0.37403762377413746
-0.4687613989308277
-0.4410347456640035
-0.3730991347839417
-0.35813623024059144
-0.4046823729757148
-0.4031467003718693
-0.4082062366641459
-0.5984099098464468
-0.5415499840589342
-0.45180064618172716
-0.5066436356907799
-0.46366914485266875
-0.6385512600874605
-0.4222833983995811
-0.5131356900019123
-0.47544408511926356
-0.4021621326642138
-0.5190001296605788
-0.4439551533222501
-0.5212656796947542
-0.5433331835089896
-0.5287242579372504
-0.4145389183969007
-0.48086300786951436
-0.6001727452949217
-0.513721607069643
-0.40831462166629134
-0.43999782238611773
-0.4109917861417251
-0.5228824439675206
-0.3745157578839892
-0.5646920113141894
-0.4114907267932807
-0.3691587546495779
-0.43177744927716966
-0.4517513012102754
-0.40397690610870124
-0.46293138329736855
-0.48305337748564664
-0.41057321645830586
-0.43998203747227826
-0.39994900619693924
-0.42993806733934803
-0.46008016999737295
-0.46658856029373136
-0.5241922978747852
-0.584333158397707
-0.5365034963868106
-0.4457593696920862
-0.40736537699943665
-0.5260422747553105
-0.5061834447001621
-0.5586926969910808
-0.4917808175849653
-0.5115926877748133
-0.4693223113390872
-0.4628288597394326
-0.39997021242826986
-0.46813622639903846
-0.4151947781316824
-0.4231638624522763
-0.45168879548544283
-0.4773150667861578
-0.440308348757329
-0.4704829244968047
-0.49760689116737966
-0.5257930707620234
-0.5575227674711501
-0.49208526462346863
-0.4829147254237873
-0.3404893333530837
-0.5018771943194033
-0.5417933792661752
-0.48457221576130494
-0.5046000043612865
-0.5557910470260121
-0.5290018370444224
-0.493181027222258
-0.4375270994722244
-0.4903861589775732
-0.5047715503338159
-0.4886736155368722
-0.484757369784606
-0.5567560835101706
-0.4326497942481521
-0.43233190709149677
-0.29332796782475223
-0.330443003204732
-0.26246476930270696
-0.2515080888471444
-0.41083360714756384
-0.2937476855557258
-0.290552431626702
-0.4921771882428257
-0.60396447407754
-0.4323551786982139
-0.5435423066617189
-0.5436408204703991
-0.6700706634793646
-0.5363794109335959
-0.511331788712307
-0.5105975226305661
-0.5077173955019082
-0.5810815153507193
-0.5621878825303119
-0.41059533870219583
-0.504376438421275
-0.501321129302643
-0.4657651352055305
-0.5321497939953369
-0.5156411341585837
-0.48903439504330143
-0.3278845316215992
-0.4671338062455342
-0.3365371688542885
-0.36540884345077546
-0.3756371593513232
-0.43743563907373056
-0.5234234519471913
-0.4401283379137618
-0.44288300637638817
-0.4857006653282045
-0.48132474482329374
-0.429495179247987
-0.5210132703358125
-0.5497616003424818
-0.4966403460959228
-0.551749535346024
-0.5011587272753156
-0.44900164762674344
-0.537217673072681
-0.5251690962446166
-0.5723144032237251
-0.5786825106895611
-0.5223871602477415
-0.6236842551733599
-0.4807062823863593
-0.5384041593597103
-0.4154413877947417
-0.5163854405265458
-0.5966530855419363
-0.49521085064870907
-0.5682851469151888
-0.5094811935611947
-0.5580823915276745
-0.39855415004033407
-0.6029665022396681
-0.5278203855478464
-0.6030117112760178
-0.5101881185193097
-0.47237494511723954
-0.43054383702744287
-0.5918875557498506
-0.4375841548357735
-0.3674483996901001
-0.5214058032437567
-0.4710176597907713
-0.47939422048387137
-0.44872013128671995
-0.43811974138476734
-0.4513830508944531
-0.52195829728217
-0.5325304165923087
-0.5234124267860734
-0.6395692686670288
-0.5376428978169137
-0.4668090261925348
-0.48729312620611215
-0.4789505975765284
-0.4648338644326793
-0.46409383006967025
-0.5018013216055212
-0.4110877411095611
-0.51773369790297
-0.3737582355068091
-0.5962573445158352
-0.5246899683377767
-0.5436379999999998
-0.41378262364406826
-0.47287860511325286
-0.375874782502867
-0.42602722027439405
-0.46626961836891473
-0.5285059865812578
-0.36745474891506535
-0.3684753966519071
-0.5062474306919738
-0.41518625070170734
-0.5890313700396822
-0.40942976251086427
-0.38537466310368745
-0.532899142204977
-0.40853036505427137
-0.5646908582589109
-0.41055406727487764
-0.3746881204693286
-0.372696487887067
-0.6327042739784393
-0.6440825977699304
-0.5406496972767515
-0.4511053096447425
-0.6083625347574414
-0.6976273858893993
-0.4822310827355579
-0.4681619686163571
-0.5348899999999999
-0.5583218121843587
-0.7053091745848912
-0.4777918773743498
-0.4430400571308949
-0.6386315567261099
-0.516650228119226
-0.5424045708264817
-0.551314548460425
-0.4871062879704304
-0.4474538017511397
-0.5580637693261554
-0.5170795249325603
-0.6891069839688024
-0.40747158277263146
-0.5402913772921264
-0.5185407076686598
-0.5043707249381683
-0.4665842823814462
-0.46824126813149053
-0.5311336702266213
-0.4760196847347447
-0.4041313118189452
-0.4457225895397403
-0.4993015654060765
-0.5067993936574755
-0.4872346358250514
-0.5364815498021684
-0.4454955850416912
-0.5177871785926981
-0.4634646121317676
-0.5066233340806283
-0.39809694453733857
-0.41287874180487943
-0.5642722999084151
-0.5020542225278894
-0.5189775751188258
-0.5018658044110503
-0.44780069029729486
-0.49441156076876586
-0.4530964468385099
-0.4500292038012135
-0.4854770797744539
-0.4253767081772981
-0.5170277437590977
-0.46126582712305364
-0.5412131249286213
-0.5410138215540407
-0.4018132969156161
-0.4954183995414654
-0.437199216339699
-0.47614534592809676
-0.520120017377817
-0.5112969850463743
-0.4342884355172603
-0.5069804634111155
-0.5573428971479508
-0.5358438834469939
-0.42008412503523923
-0.3734405524133927
-0.5585608183533753
-0.34209264322532
-0.461724786447998
-0.43360799932680927
-0.351430825475128
-0.49708504541118353
-0.5418539293532634
-0.4344290235856271
-0.4725760329287868
-0.40225660260384377
-0.5788103770177205
-0.4856050752167086
-0.492256755948103
-0.4408314099951302
-0.6094782691865774
-0.6198385031286308
-0.4749627292483615
-0.42884401777777786
-0.41925779782853734
-0.4690143996174668
-0.5228688667423117
-0.42574684283879544
-0.4078443420637431
-0.4747924383947595
-0.48190319236523577
-0.45810304350025327
-0.4346565457322851
-0.5695524516679724
-0.47184555737068445
-0.4676511666331636
-0.5576202837209295
-0.69768324080262
-0.4893797843129733
-0.5776335933186977
-0.5368758721350733
-0.5672103006979902
-0.2891816721160091
-0.30394555486670655
-0.5123185518095835
-0.5219759734856944
-0.6108999651746697
-0.562536737430749
-0.4219729007074991
-0.6026510926928422
-0.5225266681640496
-0.6061399488861775
-0.575939888100362
-0.3532064534042976
-0.548078629557593
-0.4529946761037652
-0.6189209699400651
-0.3620883212098978
-0.3861822948956394
-0.439698558276846
-0.4408591083997854
-0.45418641281757005
-0.46335402826014854
-0.458285618519172
-0.4571893037683951
-0.32497716924984615
-0.49774276021010155
-0.37172961792350373
-0.37130095824900844
-0.4096687079529614
-0.5184320541219112
-0.45640987302138275
-0.4917595796842118
-0.5506527675827827
-0.6599259563003096
-0.46470769358699104
-0.6567699641691039
-0.43591233754812014
-0.4855344648186685
-0.5192654114162282
-0.476793332300062
-0.37105131224780913
-0.43763253573283
-0.5145667711729196
-0.530819083987589
-0.5835832471906077
-0.3562977788113681
-0.5665784925186536
-0.5344159618518051
-0.5356885033430101
-0.5369567606326967
-0.5640090999933535
-0.5098109295436298
-0.4018101354868325
-0.5326818916670507
-0.5158367047123544
-0.5677747549734269
-0.6183636013521382
-0.5682325845613764
-0.5286768803624239
-0.48711198708010345
-0.29196371650296343
-0.43978632391208267
-0.5055900841240354
-0.4960549650008836
-0.6003426451047286
-0.47294377758685624
-0.5644021163463532
-0.5620572758311521
-0.5377878954189055
-0.531859878780404
-0.5766021956493992
-0.535878461145087
-0.4497815274975709
-0.5186314064179314
-0.5876451497152397
-0.48069501369768713
-0.5388992429763056
-0.4880771950804907
-0.6621721623403137
-0.48160581855744244
-0.5687805445339943
-0.48375811294158855
-0.5791167706133648
-0.6202108420658531
-0.5543114333539007
-0.5284785420431051
-0.5601432612810767
-0.593953456912584
-0.4579582928962134
-0.45795725977289137
-0.4579668310424542
-0.48475942330173094
-0.4814087264326589
-0.5063640962391466
-0.4165311681190896
-0.46670225630840667
-0.481547065448174
-0.4951241318057798
-0.5669946550835069
-0.38792956544932994
-0.5845535686758376
-0.6570984920153784
-0.5049346838189709
-0.5192220602195111
-0.5634394096798085
-0.34900282475373373
-0.5773809050277535
-0.4336009898059369
-0.6179422811369504
-0.6179488351096142
-0.5099122366217305
-0.5061847040130224
-0.5132264331851655
-0.5328085554507955
-0.4847735856984723
-0.5010050311150672
-0.4959806329033745
-0.5955346819571882
-0.4582497400699223
-0.5381763675751896
-0.45160085112633025
-0.4735736515795311
-0.5008654948747862
-0.4794073617571059
-0.5155468399647801
-0.5728692333412388
-0.4691346173019807
-0.677451936431735
-0.5016279870379191
-0.4226615161323768
-0.5776145930977485
-0.5198087329418487
-0.5881902803471696
-0.48280924719364743
-0.5136605071249755
-0.5023674142015951
-0.6101201640368794
-0.5410520212705875
-0.5694628270401707
-0.4383801829184971
-0.5323136188296823
-0.5089922941649949
-0.5745342833051715
-0.5105157989136389
-0.4222779000624849
-0.6025692800284069
-0.5863238489357309
-0.6431550489817789
-0.6454738932546139
-0.568624369430114
-0.5345191946621811
-0.4767478457549785
-0.49481752623370673
-0.3787016545015405
-0.43679492842193873
-0.3529845815251083
-0.5263603624662475
-0.3597000938383878
-0.48914743938116506
-0.5316080890282792
-0.5315461981706806
-0.3660205185365633
-0.583906962640666
-0.5194720978142721
-0.5052728054889019
-0.541774431379715
-0.52522
-0.509987105395801
-0.596459524950827
-0.6736485668301083
-0.4203849805867322
-0.5325211706732916
-0.49262603173287733
-0.4535675486960458
-0.4414024093304762
-0.3833682534634076
-0.35496510030883566
-0.3539359824874807
-0.5264943941887732
-0.5153754045227753
-0.4712811376306459
-0.4822847248353254
-0.5498232780741007
-0.4256934708966859
-0.48538871345486795
-0.41696962129265097
-0.507198875989102
-0.40475797703537475
-0.5505218354451972
-0.34897519416291095
-0.3262370724561782
-0.38360480691999066
-0.531699289924969
-0.5190073590140749
-0.5515463486271668
-0.6570870681939577
-0.6269121124088352
-0.5488849640684381
</DataArray>
</PointData>
<CellData/>
<Points>
<DataArray type="Float64" NumberOfComponents="3" Format="ascii">
0.051026113098727434 0.08600177986450669 0.29999999999999993
0.04227883291249092 0.047939224310635895 0.3
0.0720391719122123 0.06935674235575601 0.2578594489271271
0.0860017798645065 0.05102611309872777 0.29999999999999993
0.1 0 0.3
0.053164023606176045 0.013943122276674463 0.3
0.0933012538660835 0.03598438587799763 0.2608244526866328
0.07167184254219708 0.0032192138312489875 0.25948857686412263
0.04638482881804534 0.037015897754092045 0.2599806508510354
0.037013369917786594 0.09289784953016453 0.2613756306428428
0 0.1 0.3
0 0.10000000000000002 0.24
0.015967628792777952 0.06205739579696616 0.3
0.0900257541414851 0.043535773695397614 0.2165491991335119
0.052540912315940456 0.08508497242761882 0.20840741109977517
-4.974679776301841E-4 0.045670612998757194 0.26416801933830164
-0.01276175732628658 0.06190746481407493 0.3
-0.051026113098727795 0.08600177986450647 0.2999999999999999
-0.03598438587799764 0.0933012538660835 0.2608244526866328
-0.03931430301398858 0.03769179248074707 0.3
-0.08600177986450669 0.05102611309872741 0.29999999999999993
-0.06935674235575601 0.07203917191221229 0.2578594489271271
-0.09289784953016453 0.0370133699177866 0.26137563064284275
-0.06243214200573856 0.012692146005555127 0.3
-0.1 0 0.3
0.08600177986450548 -0.05102611309872943 0.29999999999999993
0.058453283185157204 -0.02278808167319614 0.3
0.09289774606158197 -0.03701362960691413 0.2613753747279502
0.050042431218310555 -0.0295459582154997 0.25815270104161236
0.10000000000000002 0 0.24
0.04619450246111688 -0.04739064463759382 0.3
0.051026113098729654 -0.08600177986450536 0.3
0.06935654097514962 -0.07203936579372688 0.2578581990573389
0.02021751731938387 -0.06054059803436248 0.3
0.03598438587799806 -0.09330125386608334 0.2608186501391343
0 -0.1 0.3
0.0157403018785058 -0.06223916528955508 0.25995241852133005
0.053890359975504266 -0.011701271793405636 0.2163054020832249
0.10000000000000002 0 0.18
-0.010419645895973639 0.05958265605507741 0.2203764523416998
0 0.10000000000000002 0.18
-0.04353577369539764 0.09002575414148509 0.21654919913351192
0.022696481903450395 0.02913955796866975 0.2242037055498876
0.05489725004665383 0.018865110950033247 0.17061690892274955
0.0871018217960028 0.049125071397580364 0.1591806407171875
0.026167148076315705 0.04879282329614361 0.16802659032774095
0.04913265630104126 0.08709754350613884 0.13809616141512307
-0.011582967692963218 0.06343752975373772 0.16005389203456122
0 0.10000000000000002 0.11999999999999998
-0.04912507139758038 0.0871018217960028 0.1591806407171874
-0.03697447780442473 0.02388403693479061 0.24388370937437487
-0.047755558676214144 0.03969692768776785 0.20001665211424993
-0.08508497242761882 0.052540912315940436 0.20840741109977517
-0.10000000000000002 0 0.24
-0.037309222477960535 0.009167355227784845 0.27283092344195686
-0.09330125386608336 -0.035984385877998015 0.26082445268663423
-0.06250578181763533 -0.015810710485154103 0.3
-0.08600177986450536 -0.05102611309872964 0.29999999999999993
-0.05169513507612061 -0.03354986301692461 0.25679110081028167
-0.014295897018079345 -0.053611712980559056 0.3