<?xml version="1.0" encoding="UTF-8"?>
<VTKFile type="UnstructuredGrid" version="0.1" byte_order="LittleEndian">
<UnstructuredGrid>
<Piece NumberOfPoints="1536" NumberOfCells="6750">
<PointData>
<DataArray type="Float64" Name="f" Format="ascii">
-0.6413481145762293
-0.51679
-0.5733857470669561
-0.6005073964081262
-0.36559353710707426
-0.3963779623037093
-0.5052646603014824
-0.31021019531250005
-0.2844683443458899
-0.41567960825633593
-0.30502840049597024
-0.31017990097245113
-0.3160207724802117
-0.3230956
-0.38373908283629904
-0.2825948945494996
-0.4061360260384376
-0.4627782077850042
-0.7329712922395997
-0.6662753564786114
-0.6485429057804015
-0.5944615837808659
-0.6246939067989253
-0.570356507768909
-0.46900171525850126
-0.4534564718037357
-0.3812060711610492
-0.43402006794745884
-0.32945653506922923
-0.23767855568579097
-0.4367987080724626
-0.263533356943551
-0.2878476201896993
-0.43289462568013276
-0.4143461988840667
-0.48222282084996765
-0.7356785614344892
-0.6487442467451954
-0.6455880528749588
-0.695191464569988
-0.6435199543638657
-0.5576926477093666
-0.5303073139179665
-0.6357665778053317
-0.5340263605645011
-0.431462069230589
-0.48948697253983414
-0.3359600567885927
-0.4143797497501327
-0.3801127291263015
-0.4704269415133247
-0.30604631401557936
-0.45376807269645764
-0.2275924732802491
-0.43877582900564865
-0.5484881617989122
-0.28480094303625725
-0.5441596910241874
-0.4582494181029136
-0.5464860252139986
-0.6341408809217597
-0.6328676751394915
-0.6769488696211451
-0.6944000318979562
-0.5736718972456916
-0.6134100948591525
-0.6116395807507155
-0.5784082939742112
-0.5029708112029385
-0.4688840634884705
-0.47391205761791744
-0.6003583281669763
-0.49761178282786983
-0.46077249477097254
-0.36444297557346594
-0.4417388333893159
-0.3368177231978194
-0.5436407891738374
-0.38416039116896106
-0.35683528082680044
-0.4418630611801531
-0.6277119012630975
-0.4461050684085333
-0.19972755743535572
-0.6069761258925722
-0.5824624180908701
-0.26348273725364013
-0.594876120740297
-0.48006060409175433
-0.6040669581555216
-0.5898218225056243
-0.5703400000000005
-0.6821157358381383
-0.5864345761620982
-0.6807162543402773
-0.5861483989553519
-0.6176480200609022
-0.5039635192930967
-0.5452698199287321
-0.5651478569952463
-0.5392163666964682
-0.5576459903932846
-0.46758133543330566
-0.45547646511801615
-0.47306639999999894
-0.42000203785735474
-0.6055233333333331
-0.5106802658912154
-0.5151317060653883
-0.3883380673803138
-0.44454161396982755
-0.3957271606642099
-0.5874141880310279
-0.5509606163280516
-0.31377714885892494
-0.359563154979643
-0.597584500499041
-0.6394214676911748
-0.358087135753941
-0.1783606336805553
-0.6254563456196846
-0.5236420038820454
-0.2315506695598263
-0.5980481544588211
-0.4376158666666668
-0.5449639491630508
-0.589760027486722
-0.473496
-0.6597470735941471
-0.6598705863530993
-0.7343354270833337
-0.5238718952399953
-0.6466466491967497
-0.6938341531308122
-0.49650262820096464
-0.581137969810156
-0.5331193646179875
-0.5747662071382785
-0.48848058137285305
-0.5243605273588231
-0.65747672
-0.593024518155702
-0.4934964879040729
-0.5666916085241134
-0.4740160818074786
-0.4207090020652923
-0.6265254817110973
-0.4397736537552835
-0.689458
-0.43078445329881815
-0.5779867823508197
-0.4638215309595283
-0.42415060574227853
-0.4700992247947981
-0.6132286135925983
-0.4341899567927674
-0.2655026304585046
-0.466517728935458
-0.6008783861144036
-0.520703924361437
-0.27425359524084997
-0.29089172135416674
-0.5646506705854569
-0.441090215688787
-0.2989659491630503
-0.5317585718686353
-0.41193399999999986
-0.4471311332920025
-0.5258450175460354
-0.4629826369084525
-0.6985539120456812
-0.6959997931146004
-0.7912585840092651
-0.5838752872494314
-0.7573063620146335
-0.7532908505203576
-0.6012521221415635
-0.5202734623135258
-0.6715799853211913
-0.7286092798512088
-0.5751642927226298
-0.5499333089439881
-0.542944490451176
-0.5117622005235243
-0.5648029920940522
-0.5887229402087523
-0.4780652255205973
-0.5754923721015968
-0.6962766867248141
-0.736482271105875
-0.42006616035506306
-0.5392798109891719
-0.5816395565302875
-0.38329789565337186
-0.5554036582025025
-0.5829783704810151
-0.6723075408142174
-0.3074763050535401
-0.5010861721509717
-0.5454237300230976
-0.37786009217788225
-0.49764560853201806
-0.5089482892733875
-0.3059025235953781
-0.389056457759617
-0.5433647379469113
-0.5275144850075246
-0.42182197737824656
-0.35654279200841893
-0.4403702037159026
-0.5014681404098952
-0.4582383272647614
-0.4273492865735458
-0.48838402641320644
-0.4624976044224018
-0.4387870170276458
-0.44618506457840174
-0.540805552800165
-0.7190680801196506
-0.6139115902045875
-0.7108321668455716
-0.7604248106503372
-0.8487177249410277
-0.6722258248061229
-0.6816985472755559
-0.5376789088654678
-0.7867601573901838
-0.608117611241993
-0.6616505665954153
-0.5392037208170032
-0.521695324640444
-0.6838912930975636
-0.5763385494862673
-0.5542113808322983
-0.554120614831426
-0.5698611636889871
-0.43173866398016175
-0.5605078638148389
-0.3945760437656818
-0.6145122913369595
-0.5271233292697524
-0.4488452671461049
-0.6286545186475646
-0.7786405867859233
-0.4676275341056619
-0.3394842413272486
-0.612402094262542
-0.44989790295515614
-0.4305907878765058
-0.6954333434298419
-0.5432984614589799
-0.353365366554353
-0.3211073555985697
-0.577595371172563
-0.37165050221407103
-0.5251502310754121
-0.37897878896466247
-0.3511911022698407
-0.5766285322314247
-0.5300408337127464
-0.45183289421735756
-0.4719036195825588
-0.5358811564372398
-0.5153137113438121
-0.539255910191233
-0.5787135626497276
-0.5306075954603704
-0.5728074819983089
-0.5673079321760689
-0.538788405281816
-0.4208474289075816
-0.5178280000000001
-0.6162095359910719
-0.6753985634107079
-0.6790150572916666
-0.5325655247940057
-0.5923405244885308
-0.6680777869151693
-0.8163989934020889
-0.6078012275263484
-0.7430017827420697
-0.46837376000000014
-0.7114778657939351
-0.5567959322413981
-0.5250865096094233
-0.6177940171697768
-0.37650612027278374
-0.6451830468949304
-0.5144487338180018
-0.4997192799201305
-0.4282190920989195
-0.5479369862455885
-0.5640509995191958
-0.47580194095863243
-0.5529758076127708
-0.4413647198230121
-0.341386928084315
-0.6223910320345735
-0.30468510436781054
-0.47158847515341346
-0.6177530267991602
-0.40689054638561667
-0.520958212463279
-0.6898535333719488
-0.586724877321823
-0.2795971555170232
-0.49411153195960306
-0.5973700012123725
-0.3243771370878813
-0.681200065134425
-0.47108400000000017
-0.5230025747259658
-0.29344927680070754
-0.49937394508507377
-0.48133360276497444
-0.4865394631093097
-0.3965003432114073
-0.5103515115158713
-0.6523536235218753
-0.561132296484593
-0.5003911388954976
-0.6193851709235063
-0.6433062883751949
-0.6032276119791665
-0.7103198174118927
-0.6887285654391557
-0.621638965902046
-0.7029150603969282
-0.6420293600000001
-0.6007993353998761
-0.3835894934589867
-0.3651299999999992
-0.47466861636389884
-0.4145454911617615
-0.5629711284352664
-0.6196778255208332
-0.6934771865923328
-0.6014675873114278
-0.5832833710376577
-0.5561144847143741
-0.5576733643314736
-0.5400103557726191
-0.6876513553723952
-0.6310592438455397
-0.4083797333333334
-0.4756391329059462
-0.2545232506716262
-0.66454491704966
-0.4977991100594465
-0.4570635223540685
-0.5144055555555554
-0.39162083248956675
-0.5902187518366463
-0.4744656088190662
-0.4519279818601683
-0.49385812001846213
-0.2895763232072746
-0.5140489609378357
-0.4450488477994015
-0.5142629253988349
-0.5570336545138889
-0.32250389912068655
-0.3621111673621554
-0.6531690647481908
-0.38061759462605077
-0.38976931234124307
-0.640762522904181
-0.4971631241330859
-0.3738924762623413
-0.5859136878913762
-0.6585081813111308
-0.4050607134605564
-0.43040736117721035
-0.6255073777777779
-0.36912811870743883
-0.6311915049209028
-0.4654500000000001
-0.6367950426907796
-0.42393527848698603
-0.4575018671791699
-0.5045896011572646
-0.48037399110989476
-0.5431767617954814
-0.6185068892697089
-0.6359451130792381
-0.5881398912931158
-0.6913970955708432
-0.7091165171928838
-0.6331623517012571
-0.6307220833333332
-0.8226176687916098
-0.6642885168892471
-0.6307001818557553
-0.6722530143557773
-0.625811333333333
-0.5624147179169248
-0.33101726303897067
-0.2477641888820007
-0.39161051588971957
-0.3129576978721876
-0.37356858028518297
-0.45452393987859896
-0.4525533280622342
-0.5803445856581946
-0.5120613408551823
-0.6510685341047221
-0.5501362770025845
-0.36835922121000303
-0.6401281733186185
-0.4791
-0.29661067952135906
-0.5685714350962038
-0.3805334641454841
-0.4705697501011752
-0.5340862055101353
-0.44365973208517023
-0.5083339986625964
-0.5885945111293807
-0.545716548768678
-0.5327522315476306
-0.43285449770613743
-0.6090958936712673
-0.4839216060148046
-0.50385989228269
-0.5542900000000001
-0.43249059779118854
-0.49678652400713635
-0.5977488433415882
-0.360372585948016
-0.3392075987389083
-0.2782292472668599
-0.5062289763256872
-0.5101294231790175
-0.40453690179445917
-0.4922714777109552
-0.40577866666666607
-0.42246261967709936
-0.502618661081018
-0.42984450131776053
-0.5246787578124993
-0.4539488146816288
-0.23672312902746842
-0.42218635033081403
-0.4145232012710667
-0.5938396480677821
-0.5452246163194441
-0.3114535814588662
-0.5026554998454887
-0.5992844887373426
-0.5437251425013
-0.42717597433105214
-0.5983592217400289
-0.5572689066666671
-0.3212614634906664
-0.4922512867092396
-0.6123193858622499
-0.5672205020809079
-0.4858191937959666
-0.5444070666666666
-0.41905740855548673
-0.5777407560375477
-0.49116452366191327
-0.5995117299631469
-0.563617799961767
-0.5406945997736502
-0.4312769266377354
-0.6217816221772037
-0.6514214244277771
-0.5851206953111522
-0.5876864017233264
-0.578604626838243
-0.7913168607957156
-0.6377957334325276
-0.5585616802532433
-0.5904853503166548
-0.7029497725201584
-0.5307347805705381
-0.5744994251776391
-0.4972239360390703
-0.5754368024798514
-0.5390581199368584
-0.4439461472756073
-0.4286449252681923
-0.47528038707716586
-0.46377560235597753
-0.49019988390248587
-0.4143368008170372
-0.5013535284028546
-0.5546134357785218
-0.2655753111259158
-0.6206789490963232
-0.43490929719692945
-0.23661571614583332
-0.3442557417296173
-0.652335952034423
-0.6147847158503821
-0.45889840421574696
-0.503537475188237
-0.5013934071919857
-0.46263137626649414
-0.3985491296951335
-0.4842267129846671
-0.5159865872958211
-0.45747343855019
-0.4670868560446371
-0.36519531503820774
-0.4884892213028905
-0.4410225037607956
-0.5004918695995427
-0.4252533818527487
-0.44322929496452385
-0.4503443999999997
-0.43637843463808484
-0.4404674618926289
-0.5113137198087151
-0.3325425912654125
-0.3417351880197506
-0.30963846041972864
-0.4786085359206447
-0.46184723248569154
-0.4667114936260071
-0.4991211782503561
-0.2962491423847898
-0.39212841514715574
-0.45713894134361815
-0.4931997872045047
-0.5615796916666667
-0.3825892974189464
-0.42364213427692915
-0.38108748913172824
-0.4618167526486185
-0.5800652870427777
-0.5049515094421443
-0.48645803734292464
-0.6099739541227526
-0.460584173038506
-0.6208468854764303
-0.569807127616332
-0.5532268883933716
-0.4982983999999999
-0.3897398544776434
-0.4375611221931471
-0.48422000974087825
-0.6041554835185147
-0.6057493722695573
-0.5097737636012952
-0.37413164637321755
-0.5660833985118393
-0.5620622442653441
-0.4893436948020528
-0.5818802643507172
-0.6499486080227204
-0.46720473506423404
-0.7387294785549595
-0.6208252859516429
-0.4792265354355478
-0.6128279373580816
-0.6421843153714145
-0.681657163158989
-0.4669891040022039
-0.5603806263388887
-0.636748939899934
-0.44943790559508545
-0.47057374419854786
-0.567240585774525
-0.41446315971658176
-0.5338439794172348
-0.5395838305130086
-0.5997512678239312
-0.47088403702255904
-0.47845507168372103
-0.38927416490504424
-0.6003229779097738
-0.44445854096410337
-0.4475359792547307
-0.2924868379084029
-0.5165183196154233
-0.4746736503848758
-0.29919401227764353
-0.26748433663980165
-0.5582031237762336
-0.4190205178016353
-0.2309205599178991
-0.3515791580396614
-0.6389823911769837
-0.6513561004339741
-0.47245420789419307
-0.549362068839203
-0.4171284908049835
-0.4336401920550022
-0.4439549060963008
-0.33755210925122286
-0.507884654697376
-0.47181193880719574
-0.314018513595772
-0.4363994548270718
-0.5122087337596072
-0.47618337927167276
-0.25977979708547055
-0.3885023813505983
-0.5331152041528905
-0.44823308461797967
-0.35131304608390096
-0.34218293924364535
-0.44046477756891095
-0.5276494527823689
-0.5410722943625413
-0.3161193871461039
-0.323891472563342
-0.3063513047097311
-0.5050360967472626
-0.5424765660960967
-0.4998677799239684
-0.4400499234961261
-0.46172335021009653
-0.4157784657215923
-0.5273026667768813
-0.49445180965284236
-0.5072091605832815
-0.5180790892891588
-0.7139321835089899
-0.48525115272638525
-0.46140646165736726
-0.48404229757945433
-0.5912257133962728
-0.7107146151851929
-0.5249081235792513
-0.365437183339917
-0.5165612313959419
-0.6834264922687633
-0.5940492509359335
-0.3970478844719978
-0.43915259710181864
-0.49040894043434474
-0.435986943989448
-0.5022651837877566
-0.653518737258509
-0.5483444735689199
-0.3424257552709969
-0.6680636526557128
-0.5738255941310185
-0.5030106562035818
-0.4876805506352914
-0.6585599713990491
-0.5645817193703387
-0.6908811920804653
-0.48499962636908417
-0.4936020769417843
-0.7639517790255953
-0.6137772063871626
-0.4692972754896116
-0.41134688756157806
-0.6841077892285127
-0.5997802963847337
-0.3401286555118354
-0.5367099158580187
-0.49646845000203016
-0.4702220091863562
-0.42712595767720535
-0.46592661058046736
-0.6811408149066621
-0.4991634745048656
-0.38588021317670473
-0.39152480485790814
-0.38337257095607263
-0.6977548937054417
-0.37004883893171464
-0.39199450788938
-0.29369219499723553
-0.3366636
-0.5558089020643262
-0.3550025245366497
-0.2894748762226331
-0.2705758988714938
-0.5167074604921581
-0.3710099936145958
-0.20281016938115662
-0.36281184001780903
-0.5717909750501542
-0.6136106860921675
-0.46739333333333316
-0.640149155048542
-0.3778695660546589
-0.3270869229400503
-0.4173532717710937
-0.4886256447988005
-0.31541695288282673
-0.6116819864839725
-0.5919003523240004
-0.2609314171875691
-0.3490250058735426
-0.46636477279742494
-0.44492895271240407
-0.22518936689685629
-0.5174310932260583
-0.701323945312499
-0.4736586120196105
-0.2959404679539403
-0.4833780343046072
-0.42207342484404076
-0.5694084034187282
-0.6837706623269265
-0.43171603146655696
-0.3338534730301856
-0.39669780772492436
-0.6201903466666662
-0.5616943070738271
-0.4621234013741356
-0.5617686513304944
-0.795963333333333
-0.5439152308328161
-0.5524505786980777
-0.3972231654712928
-0.564406523872334
-0.7955108535763737
-0.7455361920506997
-0.5604030135733283
-0.35505351758240417
-0.44803180268751736
-0.7369917690972225
-0.7167169851186853
-0.3653055308010314
-0.414844082859906
-0.39657627223551556
-0.6356410213115802
-0.6454073858235178
-0.3203181593139081
-0.39419526988081094
-0.5312858494490199
-0.5418551264129364
-0.45399839582977414
-0.5640318731170132
-0.5816798133333343
-0.31762357885397735
-0.6810584099698249
-0.4808621591731272
-0.6685942836128368
-0.46757766618858504
-0.5425912889164425
-0.5957462707170914
-0.5299057497362581
-0.43272302362192794
-0.652547029492137
-0.7878552140679141
-0.4167595823252555
-0.38219397924892456
-0.5262638963046166
-0.7068993670505872
-0.40303182081987615
-0.4396975885016668
-0.536907213095377
-0.3453420358908808
-0.4615157383798436
-0.30698393719896694
-0.3766816613510066
-0.6910133333333343
-0.6121729048552781
-0.30270942052315447
-0.3583453687668763
-0.35580450814673115
-0.45570965902045873
-0.692846521319833
-0.4412150106757622
-0.31406483682533
-0.28594605893796937
-0.3621528260979188
-0.5125603430460844
-0.3500199726328992
-0.2699415464384207
-0.2453001306386797
-0.4075803802438526
-0.3265916340117909
-0.20346430332890963
-0.3357625830664885
-0.44003217260981936
-0.5620200000000001
-0.49996840000000015
-0.7721396768415758
-0.5305649911313352
-0.2762400374255219
-0.39635575139083795
-0.42808063999500406
-0.32929787865017085
-0.6895120451360905
-0.79298679542824
-0.4291166218621487
-0.3211662874408913
-0.46435214068640174
-0.46606713827367047
-0.37912200772583843
-0.7012216738995655
-0.7899008229166671
-0.46799726574884576
-0.4075513882626041
-0.7452831999999999
-0.5372688682545069
-0.5348238315311243
-0.731653351394916
-0.5924046222222218
-0.4684783039537885
-0.551434918371564
-0.647131024
-0.4831206866748357
-0.5176776577648995
-0.8035205568107137
-0.8721155555555553
-0.5960545495350279
-0.4575482045204697
-0.33521486073571344
-0.707425794270833
-0.8695583333677774
-0.5437231271637814
-0.5065520606805735
-0.19857121616379794
-0.5008640110353378
-0.7467209027777776
-0.5768602360968984
-0.35757400153703106
-0.48361772177304113
-0.42133803409271026
-0.561800076745696
-0.6123019490941654
-0.35333132799999967
-0.23173186119709474
-0.4982449972547886
-0.6001839684050653
-0.5298926100789028
-0.5030071085745197
-0.5580920444444447
-0.3570609287042776
-0.5408149945682729
-0.46979
-0.721906092984494
-0.5763751114124571
-0.4630262806064133
-0.5528252276641179
-0.43957217745666693
-0.5528842259641422
-0.7025528187457192
-0.6094379871097096
-0.34132120280240563
-0.5118976083075595
-0.5777974503768485
-0.5455446205012423
-0.31064096354166665
-0.5003136674867467
-0.3927694927567386
-0.2950379045257285
-0.3231407816164747
-0.29519159999999994
-0.3766550526968382
-0.6868686666666671
-0.724297067851118
-0.42217259945317115
-0.351310662355898
-0.3530751321059029
-0.4601692940299952
-0.6225525534201292
-0.5218101548759635
-0.37391936175383833
-0.30772529415119165
-0.366481241992147
-0.3884884779913203
-0.3563601189137345
-0.2826268986733788
-0.25084749055354255
-0.26543097251498216
-0.2654702888306488
-0.1907875525165537
-0.3031923082646166
-0.34849250935400455
-0.582366
-0.5525678937797068
-0.8348414016161371
-0.698581702175503
-0.41934801851456993
-0.4278012452797438
-0.421526008019427
-0.4060147469410866
-0.6664180067002029
-0.8727288385416663
-0.5968449297981917
-0.4574895078310443
-0.5274183897269874
-0.5989550849974323
-0.5514422090790103
-0.7431805027898322
-0.7354115882906136
-0.5327437427776426
-0.5970875629262238
-0.7764266666666663
-0.7271478319347042
-0.563346477489143
-0.668917541685163
-0.6204707999999998
-0.6272379955573805
-0.5978838086381483
-0.5863884990948539
-0.43315124115710196
-0.647053227614876
-0.8512571940810542
-0.7046134986567482
-0.5625478834697979
-0.3145760681866021
-0.38820951606823395
-0.7434251085069442
-0.7701612147491638
-0.4680324932927054
-0.3303177783505267
-0.19583934841909476
-0.5644085722256663
-0.7001086467248888
-0.5265843412517087
-0.4607549092675028
-0.5036795563296277
-0.490332090681695
-0.5625815354356122
-0.5803334264996454
-0.48758288000000033
-0.18614661954731537
-0.5662367613201895
-0.5515244239896068
-0.5593674053336316
-0.549900106771748
-0.5250616532065849
-0.49710810126059174
-0.5307306999022137
-0.6036745127288617
-0.6114003462361309
-0.543652434776723
-0.5067247983600557
-0.5442571674967539
-0.6281240507815261
-0.5582924948034437
-0.5112643734626449
-0.6139911822265419
-0.4417474021768784
-0.4260183065350966
-0.378036568342694
-0.29898252375224754
-0.24945447200590604
-0.7277371791692504
-0.71633096277885
-0.5446410826221517
-0.4654740945806691
-0.4149238925540579
-0.4515897654166579
-0.6422190855482486
-0.46544754421687
-0.4330481092587563
-0.384428758467936
-0.41494532052076855
-0.39412782033077015
-0.2923064339012749
-0.2834769150516803
-0.26553126241030617
-0.25179716150199694
-0.23942677750217692
-0.17287638888888868
-0.362489548515097
-0.31861249433409483
-0.5497173496590201
-0.583944700351312
-0.7838815754079462
-0.7054118233192134
-0.5409655393663565
-0.5586278420537473
-0.5068603360135031
-0.5441927648274436
-0.6250059603243536
-0.7899321030870223
-0.5934853056015613
-0.6002632909278773
-0.6549955308998782
-0.7350439424419816
-0.5664981530068195
-0.6744364702471016
-0.6658042653642604
-0.6581592144195944
-0.6380185313770056
-0.6402923289935946
-0.7582236491878972
-0.6408353935221957
-0.5982028194800667
-0.5805060448164219
-0.6486186144147814
-0.5812843738755779
-0.4952294348915072
-0.454576096460587
-0.6788438128689994
-0.7452577466773086
-0.6405722959289105
-0.45956198920529384
-0.2743788985658186
-0.4767096434904268
-0.6891998237384409
-0.7115645404422426
-0.5596501973394526
-0.2316265629726025
-0.3786683929599785
-0.5881912928324282
-0.6692855255920324
-0.5625530577452372
-0.5432166049933435
-0.597961220293449
-0.5304822539597308
-0.5612402470509236
-0.5825107932762923
-0.5819696731225453
-0.39609094377496484
-0.6036916655695885
-0.506534900670467
-0.5791627316011638
-0.552143091589171
-0.5975992586454314
-0.5635742231346762
-0.4918752168732789
-0.6315293750125227
-0.5522485987456992
-0.6459192454279272
-0.4980893307277987
-0.45671185673766607
-0.4990315097224733
-0.3223503324240546
-0.25235622515808753
-0.710179466143143
-0.6456724547676473
-0.4950974985074072
-0.5468758966613995
-0.531342623542042
-0.5220667260986659
-0.6440334767842371
-0.397128648849792
-0.3835306154634972
-0.44010296188889525
-0.4749701663153543
-0.5016607212304393
-0.25116563738392544
-0.2904575625581398
-0.26894738065716056
-0.399040014094362
-0.24738594468935973
-0.2556117578125
-0.4190710109597487
-0.3622953954033039
-0.4550764011159335
-0.6086764000000001
-0.6593199210741036
-0.598386429988519
-0.49870948748255534
-0.6709860980505611
-0.6202002784385979
-0.6223735744299786
-0.6231686205716414
-0.6421201952703443
-0.4973550639891519
-0.6103501260756355
-0.7663377522079954
-0.7510834761740953
-0.5003720855113661
-0.5776980975565725
-0.6324201979166664
-0.6898606737352574
-0.5558173806840658
-0.5812340309981401
-0.6496095052467016
-0.6198075794040321
-0.5523981046497214
-0.5258625701453467
-0.5928195713808965
-0.5335002887332517
-0.4311030720000002
-0.44552266411622216
-0.5944779566375118
-0.6527339836402694
-0.6880085423985672
-0.367875864848109
-0.3494483521802029
-0.5004074049437413
-0.5999728393682839
-0.684602002342393
-0.6142664687384426
-0.3662797119088341
-0.5399795817006118
-0.5593110907178924
-0.6116824196389358
-0.5990540299493499
-0.6223211872287663
-0.621049022855752
-0.5393853650840784
-0.5683292166800739
-0.6045208553502787
-0.6245009461618415
-0.5383025793600823
-0.5086351422418983
-0.6055622332162294
-0.6295945661413446
-0.4252549038951959
-0.5419471865691433
-0.6290340851369888
-0.5449548679424815
-0.34965978499690026
-0.3260124212872088
-0.6091386666666665
-0.5352001164633685
-0.3855539995255673
-0.5083300955726665
-0.6105396932713183
-0.6012977537962313
-0.534635695804919
-0.39489052033227995
-0.3136532731564117
-0.45088128074113615
-0.4753809333333334
-0.5259340012399257
-0.3345278023098335
-0.29968957273450764
-0.3224939045257285
-0.538071209547427
-0.3204870402773905
-0.3633441749530188
-0.4330663357337335
-0.4553192026873391
-0.426156
-0.6246826666666667
-0.5380253213466423
-0.46124118563290867
-0.4049368917651351
-0.689931465079562
-0.6746488771015863
-0.6009069311965137
-0.6107950289127243
-0.5292909756944438
-0.40350921683900043
-0.5576808992840511
-0.8070733040570985
-0.6911645496316366
-0.45180219431649976
-0.5102435521802023
-0.5484668828124998
-0.6337590152575246
-0.48125013620124074
-0.6000236232692707
-0.5271532317892528
-0.5279000898026632
-0.4436836116966311
-0.48659344
-0.5573389999804937
-0.4775167770200459
-0.3853950666666665
-0.40057841096914676
-0.4668903051409233
-0.587868867594334
-0.6533120640826876
-0.3947468803471796
-0.4409184374734607
-0.46075516319285903
-0.4978081105960896
-0.6554423568286034
-0.6326745195288281
-0.5773847363790667
-0.5867543506779804
-0.5051021137126314
-0.5850061157183108
-0.667669130903941
-0.5946310158510285
-0.5404494614082503
-0.6186388655589995
-0.6882378601335813
-0.46850536860625785
-0.5807038513557274
-0.6641492128113605
-0.3971969221740031
-0.5969956266984496
-0.37171689966711147
-0.5312088888888881
-0.39891299955031734
-0.3351927462474969
-0.45510054026458074
-0.6253671482625331
-0.571391709030792
-0.41487070537989945
-0.384839002840897
-0.3467670301814065
-0.4489842096233337
-0.4555291999999999
-0.4454649865674722
-0.4676460474708393
-0.3598819338520575
-0.4030122866560539
-0.5617017937590416
-0.47004544427538747
-0.436248407270086
-0.5099981003162004
-0.5367838539190358
-0.46284000000000025
-0.6032257702004548
-0.47197106736657807
-0.352312302934707
-0.360930353534038
-0.6823398587246476
-0.6864350764721401
-0.5438226978929201
-0.604128333188051
-0.43548721932870277
-0.3616547295492678
-0.5208481397219226
-0.789399101576496
-0.6465058782676596
-0.4488390883240339
-0.4161372583867184
-0.4702038690086408
-0.5728931971403936
-0.47667403293767513
-0.5772227487338505
-0.46820118600119315
-0.4595347405062819
-0.3278305303981002
-0.4356304888888887
-0.5304968374184381
-0.4516473596473103
-0.34658101559826426
-0.38458511998437567
-0.3758681275507733
-0.5876439834397703
-0.5823133333333338
-0.4676385057761338
-0.49096329254452203
-0.40600117466057567
-0.5187515065689593
-0.673589818752971
-0.6469723702974972
-0.5664554064393149
-0.5261036274861707
-0.6545764322916664
-0.5581761603637111
-0.6428297919834626
-0.6414160128030083
-0.5041477333333325
-0.6902123899334701
-0.4816262285596189
-0.47854967486395217
-0.3022078767740855
-0.326834599547621
-0.46885429689350017
-0.630361933919207
-0.4950815995040298
-0.3197146398670387
-0.3172539776178267
-0.45823135573863877
-0.48757982733881217
-0.47736233192808447
-0.33114369309753033
-0.4852069459105148
-0.5172966052110245
-0.48524084819917973
-0.5138127623299562
-0.5424938031459002
-0.5663205416666665
-0.5640280629094593
-0.5947518845803339
-0.5275627567679267
-0.5766145771853689
-0.4794275610470051
-0.2710226482071673
-0.36210989090480356
-0.6707442883668215
-0.6827392125401862
-0.5226378148807383
-0.6440795956138197
-0.39637220546385227
-0.32620598542248286
-0.4996614141599504
-0.7424168438941061
-0.589276729499429
-0.44982963678445925
-0.31900604796198295
-0.5022622375361648
-0.5436411870155275
-0.5238320597898322
-0.4970219999999999
-0.5482482238995151
-0.4296658422009299
-0.3466215879530426
-0.34778583721154566
-0.49932244509664986
-0.4095013922386399
-0.3741839454928704
-0.3795865741066582
-0.4602371146699819
-0.6380394863909727
-0.5000655320241727
-0.4730105535651194
-0.4585851790372472
-0.672468109375
-0.5486279087707873
-0.5913279541890651
-0.6491764736515809
-0.66549424
-0.6465028340643
-0.6572205170489771
-0.47869218846869105
-0.29077247836725273
-0.26426371753536765
-0.5204902164035322
-0.6492737752693265
-0.47445242915237046
-0.3338429666821568
-0.25864020116875347
-0.434332861420734
-0.5901366482391293
-0.5558864821244054
-0.3280827926556893
-0.40679448263803936
-0.5432424430829202
-0.6056659677619344
-0.5029763045101888
-0.5014482285982945
-0.6106316362847221
-0.5509768985580211
-0.6313828053867877
-0.6021799504029758
-0.5791235034097956
-0.5963936761988875
-0.26627448174534624
-0.3277854840469436
-0.6357241156850595
-0.6745365418265709
-0.5825174972779835
-0.6709917430937797
-0.5277067740757603
-0.30276079533851497
-0.4819595885513533
-0.6629608188342884
-0.5369872048626656
-0.41022866677090336
-0.39498822388568483
-0.5724634883124634
-0.6107854770314293
-0.5012237394089691
-0.6683248631063147
-0.5018517136332944
-0.45207079514969806
-0.3676457779706553
-0.45200284106131855
-0.4127350249740336
-0.44216261894606373
-0.43039745157034853
-0.6937474397567831
-0.468876453421883
-0.47787398469595616
-0.6639204009012712
-0.4957266037357852
-0.6988138175656121
-0.7002101277323233
-0.5304324147551146
-0.45299619605860625
-0.20991254875311713
-0.46773064324888186
-0.6716988345881135
-0.5407744939308597
-0.42735738230070136
-0.3858262396534567
-0.2926808375705327
-0.5778113529298173
-0.6420008
-0.43179804074234424
-0.4561701099458162
-0.39096523462343513
-0.6329415437073774
-0.5666933082198656
-0.5259067275937848
-0.5262729148880413
-0.5975063740253768
-0.6362599812686863
-0.5982254153750772
-0.6091323551421189
-0.7016327154758959
-0.4774181620198507
-0.2836988867457526
-0.576892958558931
-0.6503604128429383
-0.5906339429634216
-0.6607611167179477
-0.6990777094939706
-0.4426644206381141
-0.45382702177047013
-0.5957686050886063
-0.5166385212414727
-0.44554009383177323
-0.5881173821603057
-0.6143314928141148
-0.7038643845649749
-0.6784129775718234
-0.5369612404823852
-0.5021122371151078
-0.4658460396690361
-0.4744980521940611
-0.47382135046614965
-0.5918852519929715
-0.4030449919120329
-0.5727705584211621
-0.5620805700608584
-0.5248514108527128
-0.6314728900508988
-0.389467379697546
-0.33097089315080913
-0.6468054751421183
-0.5976302740235586
-0.40983322459730515
-0.5837834428691676
-0.35856513305136245
-0.4143383085690698
-0.6530842666666664
-0.45285540948398934
-0.5972569299882106
-0.37581335843885705
-0.535100299557084
-0.5867763729271168
-0.5630327151072064
-0.5273654882893224
-0.5688907920715713
-0.5637444717643847
-0.4835028537467706
-0.5761940000000001
-0.6437713473365819
-0.7104047830374592
-0.40091217936183726
-0.50331046540105
-0.6132600190724266
-0.6326417147994298
-0.7164283623645211
-0.6414886381146302
-0.47336058572659573
-0.5714879879406105
-0.5353823834309434
-0.5564319589773222
-0.6795723105836357
-0.6542572369791665
-0.5891635102293862
-0.5427855903255819
-0.5509513076051494
-0.4177514470574737
-0.4739761600000001
-0.37726929200247994
-0.4207099999999992
-0.5862161622182352
-0.6285028372531163
-0.34858556855308387
-0.5580858261680953
-0.5850598946063236
-0.28210644141351565
-0.5937999284644166
-0.5406909190562087
-0.33759163635393646
-0.5937710240132262
-0.3779476472411657
-0.6008663164293364
-0.4315574556192672
-0.4710355094389626
-0.5587505817317635
-0.45191188088655027
-0.48895533648588674
-0.3715051838893249
-0.5167825767441866
-0.44071
-0.5113901064335458
-0.7037906682689118
-0.5657287534647607
-0.46245421114366164
-0.5916654533134303
-0.6434105078124999
-0.6794563588684888
-0.5293056281559584
-0.5597996011816713
-0.5922619491480433
-0.5688761742402159
-0.6372697241165531
-0.45413386666666694
-0.5150389157369389
-0.2834194296342219
-0.42758867479482016
-0.6331987623198656
-0.4549407118697289
-0.45138140409486865
-0.5726698432041174