<?xml version="1.0" encoding="UTF-8"?>
<VTKFile type="UnstructuredGrid" version="0.1" byte_order="LittleEndian">
<UnstructuredGrid>
<Piece NumberOfPoints="1536" NumberOfCells="6750">
<PointData>
<DataArray type="Float64" Name="f" Format="ascii">
-0.42203284353235415
-0.32729
-0.347805216988819
-0.2628778622357242
-0.2775671461342923
-0.23409352022171118
-0.3917148117733826
-0.3056491796875
-0.2868238431080941
-0.4691055120630476
-0.38598205827650345
-0.37565194813121366
-0.4569535117366235
-0.4421924
-0.3987524382830094
-0.34810559610761727
-0.41996662740235585
-0.33314087652313296
-0.32213075855915857
-0.4825859795412275
-0.39633400965468396
-0.2781136107457049
-0.19650254184748944
-0.4286580189874372
-0.33842191732273563
-0.49589962460829545
-0.21917931218364176
-0.4332775640951942
-0.4801146154577393
-0.2906540380028585
-0.4573469148543931
-0.37745120682376715
-0.31787606390754414
-0.4043336434670514
-0.25804885645794645
-0.1955512977465208
-0.3952382076349041
-0.45758821450712955
-0.4012870623345712
-0.2216602581856518
-0.350598402022915
-0.4234240495477825
-0.20366635618086945
-0.16953128952262864
-0.3849247130697672
-0.4825656917187882
-0.4561300221789519
-0.5078597301921884
-0.26620572859264774
-0.26041412672825354
-0.49160264989475405
-0.4651123083486658
-0.32995414894939495
-0.3605794235233906
-0.476387135105064
-0.33542777739559954
-0.3362290859872648
-0.31713049593514736
-0.2349842606323622
-0.19812195992995535
-0.38118034645634663
-0.3577654350072323
-0.4097745335147955
-0.3194452461719313
-0.3911974074824986
-0.5049139657707348
-0.2161312292960882
-0.2985413994268569
-0.41941992828883623
-0.5799588396055408
-0.26115988072095236
-0.23331393056416674
-0.3165475143735251
-0.4546142377908671
-0.5966427871047741
-0.47568519311371676
-0.5605239461868702
-0.3616679910834746
-0.33740717970046313
-0.30726430677320554
-0.4615379532693326
-0.3971743393201533
-0.36222460497923775
-0.43504330828188503
-0.41289619531655314
-0.3319517890531029
-0.4783995669638624
-0.29762173458391356
-0.4372816816697674
-0.3956533156556184
-0.2903075166810201
-0.25065333333333356
-0.3928382914832495
-0.3910247115952347
-0.5812237109374997
-0.331400306240036
-0.3704454318110097
-0.3964897153658142
-0.49397656082519026
-0.6608800309981399
-0.3110706979208806
-0.4118682967985812
-0.4228401344827227
-0.5372235995997241
-0.6102044000000005
-0.3688038696973275
-0.3874499999999992
-0.4235281691051411
-0.4232375215222676
-0.5031243434318847
-0.5438337487084112
-0.4273147897412913
-0.40979542910207134
-0.41803375221248373
-0.4570253233560783
-0.3485579738359474
-0.3822213744448352
-0.3960099979507021
-0.5191266555250352
-0.4111234331597225
-0.35177204904289855
-0.5283536190262942
-0.5204079737549084
-0.4946558723205072
-0.5663185333333335
-0.5346450010332713
-0.19425984617080375
-0.2854960000000001
-0.42584094277388557
-0.3256216879152112
-0.6176837395833334
-0.3030392038955025
-0.49467690210496157
-0.6487520985740857
-0.4457234611861017
-0.44158968632207546
-0.4861256633721558
-0.5572116639165289
-0.5336624605728063
-0.5488505845296904
-0.52546536
-0.4434604067897023
-0.5654163156227163
-0.5575323012182083
-0.5301990007090064
-0.4557718383119434
-0.4342764438933663
-0.39818651113410225
-0.5513460000000001
-0.5682196507266523
-0.486835946045117
-0.44634619301089223
-0.33669401128737103
-0.3314257703608661
-0.4090082050532155
-0.537744815966009
-0.41926302604315663
-0.43672927348254714
-0.3413427106677677
-0.5021374130125834
-0.5179377912290123
-0.3806632942708333
-0.45795120296907305
-0.6081427017504702
-0.43831569807811527
-0.6410410914423331
-0.48283552
-0.4578705058896466
-0.24376945729224828
-0.39931380967142
-0.4730517884201628
-0.36286980319281437
-0.5986903166586476
-0.28866175862781435
-0.4965487485155488
-0.6070120502915514
-0.40457354120560746
-0.4786869653333304
-0.47834586048271827
-0.4941785523868569
-0.4986569229874706
-0.6384365888581044
-0.5765682286917094
-0.5217414675897222
-0.6943594025644514
-0.6508899383538318
-0.49846653566231797
-0.3289461631099257
-0.3992842539178794
-0.5805290001446669
-0.5487067658561239
-0.6551853517879226
-0.5511880163010444
-0.39461081800647585
-0.21752939080228448
-0.46749909445763066
-0.7430980967141982
-0.5307757357021975
-0.5264507026379123
-0.4315514255413399
-0.2639524338004902
-0.3419251095625086
-0.43111166069039975
-0.5237826803991615
-0.38737803291587697
-0.6201386628938469
-0.4042594608474743
-0.5557739380588278
-0.40585993764809375
-0.468210666785601
-0.6152236522417801
-0.4739437994932523
-0.3976179488225127
-0.5480543193576038
-0.3480286065302743
-0.29205149755672577
-0.36895780412924045
-0.3537821791692506
-0.3992295060075744
-0.35090960198388016
-0.45898513270014546
-0.4811773195663391
-0.5042229368720198
-0.5277084771758503
-0.4279731571372574
-0.5053149586691463
-0.43063947463432956
-0.5202438996073567
-0.4454332905989529
-0.598846700975452
-0.604992596564107
-0.293113892291264
-0.48547535830044813
-0.373663282029266
-0.5697700942873561
-0.7187431186012243
-0.5434109154784054
-0.514073689605291
-0.6210714349600704
-0.662580541869284
-0.4762427042584623
-0.2592516781070469
-0.218922977194957
-0.7801126626083946
-0.5044798708455803
-0.6064444418074505
-0.5123332962352247
-0.3865154284769587
-0.1920474319545659
-0.707553489336362
-0.8486709578425293
-0.4872962272335877
-0.5233740942729738
-0.42033930978913037
-0.33141234517873563
-0.4269002861072862
-0.49269102636908374
-0.4792271285853325
-0.5565059785287753
-0.7506099186647165
-0.55214171380895
-0.530027637115106
-0.4043210007698282
-0.5639621251243154
-0.6473178839606177
-0.32419595373770177
-0.40422311047726905
-0.35032988934378967
-0.27677495127092394
-0.2063057682791979
-0.3553285205503043
-0.22007600000000002
-0.29410145762291523
-0.4322406939522077
-0.3823169947916667
-0.4318876990456619
-0.5280319355238685
-0.49835497879187024
-0.42739833985394055
-0.45927839305641677
-0.3860432666082659
-0.52651656
-0.4451928591100422
-0.5320474826410225
-0.6052940614452024
-0.3556037015707656
-0.5795171159330438
-0.3167865382481942
-0.42178573804795677
-0.6451274242061088
-0.560712727147483
-0.3548630594926791
-0.21167213029025858
-0.31263965136259214
-0.5518085697210607
-0.6209711893362883
-0.4276596156230627
-0.6254931172970963
-0.48999244556510196
-0.6055583586861527
-0.4399581098198109
-0.26882593934283955
-0.21626321706378168
-0.9197717884361141
-0.6415653907613185
-0.5584812458200948
-0.5200408729404663
-0.4098376162568032
-0.29778494125112565
-0.9059753234758078
-0.6465640000000001
-0.6135825973838839
-0.5562323399586974
-0.4820122259695528
-0.46013599135220934
-0.5220619577871822
-0.5699994274767518
-0.5118323811513806
-0.7438136448732634
-0.5911463599727201
-0.6532206071238454
-0.4553055080554495
-0.5032495909304747
-0.49492699479166663
-0.5220774349346031
-0.30783817113611894
-0.39261908803471796
-0.24865886958119454
-0.27109047999999997
-0.2128330291382517
-0.24914239932213264
-0.23873000000000047
-0.3133897100460871
-0.43034013687151157
-0.34950548330893133
-0.39917555555555584
-0.3687575164254043
-0.46631244988634024
-0.47836361157038015
-0.5322718116875479
-0.605170495970242
-0.509098527553491
-0.3881195679880516
-0.36895942883589483
-0.5369101333333334
-0.4138486719275834
-0.6428368175242821
-0.2742792639079416
-0.3715913932245025
-0.5377131408482275
-0.5740844444444447
-0.48737579383463464
-0.23245116417147568
-0.2533438543878211
-0.3754130298954459
-0.5859507851282371
-0.4453978941930154
-0.29054215719852255
-0.2304940975654898
-0.2873701580288899
-0.5402994719328708
-0.49934922179519975
-0.46828413946177966
-0.8081321602964072
-0.5220516808070433
-0.572875836872288
-0.48195181890197736
-0.3116785148501757
-0.31908833817414445
-0.7702539782586236
-0.8255593853938765
-0.6079868470714248
-0.5632910296648164
-0.47367715555555573
-0.4082283215514781
-0.7731834091349133
-0.3367266666666655
-0.7559252826517985
-0.5852999980506488
-0.5359927558586483
-0.5137825156712824
-0.5423348127680302
-0.5421769335259069
-0.5710166187736759
-0.6890014083849679
-0.3214897280261217
-0.5921732583151433
-0.40174456380515616
-0.5482604732546856
-0.3650766406249995
-0.36474374962615325
-0.38591673648541996
-0.38002872184335607
-0.2886801556062432
-0.2904686666666669
-0.24187357098574097
-0.2586044576711385
-0.38878241785492773
-0.4396296405955687
-0.42190932321306024
-0.4921398946063237
-0.5445070200653234
-0.566310827594286
-0.4818380181855753
-0.5263365557662026
-0.5649014402590795
-0.3930329178294578
-0.4030691162504895
-0.43776771703372047
-0.31951
-0.2889209622419245
-0.29186728418790153
-0.37951043128745576
-0.33785592454675223
-0.4679125985105819
-0.48546845478147144
-0.42138208106719327
-0.3729054752360634
-0.503543975902549
-0.3791283753010362
-0.5946366402149198
-0.34101433602629716
-0.4483880778331873
-0.5982985754312206
-0.6194646666666667
-0.5006154120708165
-0.31988789203914253
-0.25381285791647995
-0.44199741734763426
-0.7281738368689399
-0.5667070769738094
-0.2590173923289943
-0.21727729053436054
-0.3268154217392158
-0.5664110156860308
-0.49102733333333304
-0.3479095766945495
-0.20572663359635976
-0.24587620853100786
-0.43441890885416606
-0.5313044329675324
-0.43266616898498295
-0.30301749165798725
-0.27489006431752183
-0.35729346249224997
-0.5577409236111114
-0.4624577100328208
-0.6730630202620463
-0.8002256575738792
-0.6670466855678736
-0.5447220482758973
-0.5209712349659023
-0.36735823999999967
-0.37605789586398136
-0.4841563091326178
-0.7897048042619832
-0.666462134359641
-0.5362183677249669
-0.47089741333333396
-0.4325369861541643
-0.4830051351916178
-0.20184389129985553
-0.7121466346134597
-0.5605765890408742
-0.4872038926476983
-0.4438267075842119
-0.49716995193594143
-0.43401308635269603
-0.5656505472246002
-0.4960569957008401
-0.23025694804601024
-0.42609007239954577
-0.39919362063236247
-0.4995516572579332
-0.34694676358428894
-0.302695279863944
-0.4243919723369227
-0.4001980732788599
-0.3511646678821804
-0.31736807017978913
-0.2852371527308275
-0.36875810704691053
-0.44046335635117023
-0.512477304784369
-0.43799792929754927
-0.5445932421098932
-0.47537525859633273
-0.5328309810229125
-0.5200616293796418
-0.3763225176921839
-0.5549728132627161
-0.3981816894738748
-0.3031914062499999
-0.2659168670925393
-0.448362356985796
-0.2606774850175658
-0.40183365034097945
-0.3906157678137083
-0.4114161132456165
-0.5375559507214129
-0.5094559598597475
-0.3366799286756803
-0.3427438896032999
-0.38540094062873
-0.6834432660880347
-0.4681966199525511
-0.8283937009377081
-0.28171651531078035
-0.21644662563126424
-0.43104530846552547
-0.6522289987600739
-0.5741052
-0.5869320220466409
-0.32537940101747503
-0.12824470448539052
-0.3134197261004352
-0.6222682435785066
-0.427457111022668
-0.13282713753254796
-0.2737824808782871
-0.41977773080205144
-0.6050539668175339
-0.4335860181166907
-0.24174506251477354
-0.2760676510263089
-0.3185310771567557
-0.5398716515624998
-0.46121646379283904
-0.564289420898925
-0.34190965164251663
-0.31872936138320607
-0.4406442538127713
-0.49682327663122255
-0.5138763378926933
-0.7342724798512089
-0.6179998109113441
-0.6825972801649915
-0.5132423546160383
-0.466988933463689
-0.38903368
-0.3816886543420606
-0.3083325033178109
-0.6058916010670578
-0.6059062619593086
-0.46499779326088725
-0.41751581974237095
-0.4000446425294483
-0.3397243679303019
-0.2918187724736516
-0.5639910958950244
-0.471268674702289
-0.4036637073254308
-0.40783718477056724
-0.4325473838841604
-0.329795225815251
-0.5039775529446401
-0.41858535300118915
-0.32854198114439015
-0.2850141469884529
-0.400568124653855
-0.46644676994178086
-0.4213653636550036
-0.3267131661312837
-0.41227593648257016
-0.43699265303145657
-0.3710566263676603
-0.3558049654060756
-0.3605498711549719
-0.3145925738789002
-0.4170788429896675
-0.4448038024083735
-0.5146555458497658
-0.27444414246358273
-0.4858615303924871
-0.4194104278484973
-0.43127639382023686
-0.3397380077622188
-0.5174307028630635
-0.3566334769993151
-0.37771110353378795
-0.4400455143224991
-0.4512621408890934
-0.29628714947245005
-0.2899891560790145
-0.39896146627963086
-0.22932210167389955
-0.3332161223393263
-0.24696353857020772
-0.35986036181532466
-0.4117103295405593
-0.7032358568299234
-0.5343937383756983
-0.23941796718149858
-0.16803106652639466
-0.3070944133525508
-0.5289718558019275
-0.8725008132761465
-0.6730599211159837
-0.35525058441664564
-0.11524399328927752
-0.18572869550570084
-0.505250222289087
-0.646118309154784
-0.4772142341392848
-0.6520074312773083
-0.4456603257701813
-0.16983158202835688
-0.157360120231453
-0.4696974631427899
-0.2995031922062775
-0.18810118938623785
-0.40438549238037585
-0.5293874479120925
-0.5369274935064827
-0.4883095488048494
-0.28278635398633334
-0.39194013205207595
-0.4034045665976366
-0.5223381804298944
-0.4384166664062294
-0.5905423818970855
-0.42528280628402276
-0.3732025844926641
-0.4534684772136444
-0.4248204706353617
-0.5200769236287998
-0.6186872421988009
-0.4530380980081887
-0.591071620877416
-0.4596850866839303
-0.4158676198606497
-0.4170621657284564
-0.42582073850368746
-0.30861516424171137
-0.49134745014272
-0.503402520053267
-0.388209986490858
-0.4134972814493347
-0.43912397745943915
-0.35815642925192415
-0.46774459495763665
-0.5178098479470422
-0.3903933993275342
-0.334541055474272
-0.4449076950609798
-0.3610944160968947
-0.28142073122545974
-0.5054730942575704
-0.45586076211088417
-0.45335704429956974
-0.2564443419938512
-0.4282105583367742
-0.482497602977982
-0.4711164569045128
-0.3876172681624667
-0.4078349729913853
-0.4434347285994003
-0.3747353096152466
-0.38842301190328593
-0.43142896332520964
-0.17819967210856189
-0.23168043693765875
-0.4041690838988837
-0.43056342702448264
-0.597839327793282
-0.1356635089753679
-0.3394109814361048
-0.4496235906616393
-0.40551207835864095
-0.47268120000000013
-0.21881600179275476
-0.5047361761047321
-0.4272084096739844
-0.3732914317655705
-0.3609018435518729
-0.5065377607592473
-0.3352154308889466
-0.33469227705160925
-0.37043430810987216
-0.26271212647241216
-0.34311799999999965
-0.09429130349040184
-0.20714753770442326
-0.3640293451835959
-0.5645895196649112
-0.7426921539154583
-0.5433524631122142
-0.3220562356004706
-0.07812599219718735
-0.1988454969105703
-0.41499307633792
-0.6738269745302558
-0.48878329777998347
-0.25509976515252936
-0.09566389935616976
-0.36798919618055437
-0.5420317634662092
-0.5557700776813348
-0.4730957208100844
-0.5878610882474878
-0.5133936763519708
-0.4039151775160145
-0.16601753461459087
-0.3695785605621797
-0.3298185167113447
-0.4190346399999989
-0.47545763307900596
-0.5294903611905012
-0.5039261353433111
-0.5026013333333336
-0.4830243194874964
-0.47139924585244813
-0.45915709901693974
-0.49659541447204153
-0.45136414582429135
-0.49816323482813174
-0.5161566442333398
-0.46475186632182514
-0.4843389150800857
-0.41695909635416645
-0.4986842248911872
-0.500595965536654
-0.38179509376953374
-0.5370260777767851
-0.4301513659981618
-0.41496198863401484
-0.49363097333333306
-0.5304867225273008
-0.421444095780745
-0.44092108403553126
-0.502941839497632
-0.3445878364472621
-0.43152789333333286
-0.5103546328942601
-0.4109107322718552
-0.4866363276485791
-0.5201341997794025
-0.43258003640555454
-0.2966882187228774
-0.45501058235172537
-0.3334373947947645
-0.35945905078211454
-0.5312598891304267
-0.4729307130926929
-0.4258937986254559
-0.3690511502453319
-0.4614636212624052
-0.4778384133549978
-0.41272385601044387
-0.4229924505194343
-0.393723782286214
-0.4085082499318364
-0.33895473080229666
-0.411537609839793
-0.45703369956314244
-0.2785922222222212
-0.10733883884149371
-0.351315613995622
-0.4318486653726002
-0.4974876770682795
-0.509183075015499
-0.314790298270991
-0.2501546856868258
-0.5380236336658518
-0.40583249008946903
-0.4088851659247314
-0.3226941516842315
-0.4517570143490433
-0.5488345148905721
-0.3362925340082717
-0.36786141454846083
-0.4826659185732898
-0.41559267312541964
-0.3511763891149564
-0.40957687993109365
-0.3913366666666659
-0.41965080000000005
-0.25695749409276475
-0.14231558845504197
-0.3605369628136916
-0.4567240295191936
-0.5362486472325846
-0.5333123637153762
-0.4332557041106082
-0.32249495515046145
-0.18636855917850245
-0.3720269887154472
-0.48550932240430716
-0.3869284185634135
-0.24850559989133894
-0.38070460735689005
-0.526904244270833
-0.5160319128305292
-0.5144505034466721
-0.48205800000000004
-0.5747158303670615
-0.5055856580168155
-0.5776795474271542
-0.41956297777777624
-0.373227812957655
-0.5206248708410819
-0.5708636640000003
-0.5063026728322947
-0.5615722049116042
-0.5213876630665263
-0.4266966666666665
-0.587902250464972
-0.5311303917180114
-0.5526701864558491
-0.5173895020833332
-0.47029824932316516
-0.4299274196167642
-0.5702666786859084
-0.5819093111168975
-0.520158877371358
-0.45169351128472196
-0.5012450084489545
-0.4161141738438347
-0.4098991008675253
-0.4704537855079222
-0.45933252001020347
-0.424603665357856
-0.5269331039999998
-0.6037060001887696
-0.4833994524254572
-0.3896558439222708
-0.4972544647294206
-0.3847329019701676
-0.42027368888888833
-0.5027593341599504
-0.3965898826037108
-0.37145999999999996
-0.45248431182574417
-0.48752549454613175
-0.35972899349204296
-0.43842117792932395
-0.4365305124563337
-0.4632977340906515
-0.4792919512202793
-0.42255872656797405
-0.31329692541385074
-0.48677560726650176
-0.42284432769913205
-0.44321804096406514
-0.32661507812500007
-0.3612240684666554
-0.37746682348650823
-0.3856237352758835
-0.2835874120861456
-0.4361948
-0.4407348357098574
-0.504483333333334
-0.31918580008025005
-0.3278235827236209
-0.5127559664731063
-0.3666427185313353
-0.36269977638980627
-0.5817225947509818
-0.36228634107235463
-0.5447514230102269
-0.47007008305059844
-0.26260967406489005
-0.444144257284563
-0.42703064594791
-0.5779603034985711
-0.35628997857995864
-0.367794489977268
-0.4545463915074462
-0.46949630820223714
-0.3807856914047159
-0.45108264888888855
-0.52732
-0.5093502891093206
-0.5158883185566375
-0.39427065955180196
-0.37252429788614866
-0.4382779404449437
-0.3501132576516767
-0.5446019045165894
-0.4923529902721051
-0.618276554687501
-0.44255908023412593
-0.35627281536234273
-0.3814812497875186
-0.34407563488095233
-0.42599535857270676
-0.6697447925191162
-0.5740914713660067
-0.5499656008916441
-0.48551998470758423
-0.3963279999999995
-0.5869201493647688
-0.5432544106213815
-0.6236710930839103
-0.6152730666666669
-0.45747818909535987
-0.574682603017152
-0.5861303004835711
-0.5681009848263306
-0.5939502807056489
-0.4704387323041311
-0.37225148584418305
-0.530265685115268
-0.6087557226255931
-0.5884847211542735
-0.48688469965277764
-0.4907007806959776
-0.36844192950065874
-0.6148073940094295
-0.5924727596445547
-0.48499511510642695
-0.4883737589783385
-0.44767717769618304
-0.3841982178881624
-0.4794900816951842
-0.36153762948510787
-0.44665782889697186
-0.4440587841050536
-0.4795862133333328
-0.570044499112335
-0.4531628131522933
-0.36633248734032803
-0.38930120733699697
-0.4222190024971794
-0.4402576129227798
-0.4639746100433974
-0.3610388708710323
-0.38659240203095385
-0.4298587067731638
-0.44840086897245673
-0.5027942942752491
-0.5575431386640509
-0.45484463785280954
-0.42265768851962515
-0.394007818406696
-0.47593469687616613
-0.3719236238384785
-0.45515383587239816
-0.2731987673753728
-0.42304151768036863
-0.3050716916496159
-0.6492911303988439
-0.6095318612446706
-0.46777985020928997
-0.5445817601647822
-0.32887228729481316
-0.20139654170745663
-0.696477618237182
-0.5192069990380177
-0.5352470882158097
-0.540160804693535
-0.22401629869807815
-0.48201488745670057
-0.44040708789157534
-0.5386397292357525
-0.47505675669451625
-0.36861436296526623
-0.4589790322333294
-0.4502186067708334
-0.4482147040734083
-0.4943996408493004
-0.6722753151477585
-0.5774105860715021
-0.6366303773227745
-0.7067344801741059
-0.516436412959156
-0.434378172423088
-0.2704008975142526
-0.5153336174829509
-0.5424310252957684
-0.7267864838839277
-0.7317820504341469
-0.4322157443273398
-0.31816608393122975
-0.34890415192253155
-0.58996265206861
-0.7529401523049216
-0.5783865738641013
-0.580518470193578
-0.3848016811324649
-0.33246892829096936
-0.4651715907917027
-0.5745226999581852
-0.6105012448810796
-0.6115797828201418
-0.4507752040915249
-0.43842717834651784
-0.5785982987394095
-0.5778304780883698
-0.4933758013001272
-0.41659927255143026
-0.3503008131845422
-0.5095430373199928
-0.6020438604422403
-0.4983939565649583
-0.44375214283738457
-0.47074736926420496
-0.30760321451695155
-0.6101355791321215
-0.5015364017358958
-0.4424180615495332
-0.48553228257038056
-0.34263115346481654
-0.4258627922080125
-0.5014130791485845
-0.32419506047051877
-0.3729730668032148
-0.45124822135087034
-0.4499599691175861
-0.5188774466763448
-0.3887257174031275
-0.32589951223589003
-0.41036044746755374
-0.4703333736722464
-0.48608984525579785
-0.4105659314550936
-0.38382782034664303
-0.4840363030254502
-0.5816988348690194
-0.5941385065574563
-0.4222267663728203
-0.468074279410791
-0.42007606331147
-0.4327070023971897
-0.31203020341992915
-0.6574380905145699
-0.7168349622013435
-0.658777496907451
-0.5769291445988821
-0.3916656006328092
-0.18213597723510427
-0.6333570436456474
-0.5656870230719394
-0.5668808458786999
-0.569940719151831
-0.38710588791072625
-0.4473599456885555
-0.42358555655887636
-0.5022449100602931
-0.5283159485430876
-0.373427562413945
-0.4402208614190997
-0.41807289322916663
-0.5529484618656514
-0.5197076819441301
-0.7494070861748299
-0.5456140000000002
-0.623316052241787
-0.8050330241827361
-0.7007147414361156
-0.46690678736653574
-0.2713637953083305
-0.41802654680719087
-0.5567453805939611
-0.6896369435573747
-0.8037051452426761
-0.5315668401735896
-0.3133478301919022
-0.33346522430815334
-0.5802743554715272
-0.6932737413346893
-0.5672585802083335
-0.4950184632077688
-0.3423661262132292
-0.36774070241785495
-0.3471490139048709
-0.5201587384272705
-0.5661794828270303
-0.5346311195288286
-0.3148947387663527
-0.34724413315175545
-0.5407070239999997
-0.5214327650632442
-0.3751324205454143
-0.4447048713912937
-0.3271905820761859
-0.5151522199628022
-0.5356233319143069
-0.3971371301305809
-0.47241427140728315
-0.4318563183724382
-0.31430570248492357
-0.5930812646636873
-0.4240264671624066
-0.45687688859176195
-0.48999567888034595
-0.3184903985822263
-0.46733454432734034
-0.3784414782860998
-0.3739272112940632
-0.485546078133335
-0.46120980146311236
-0.4980406188592604
-0.3897631581373347
-0.45544903082143523
-0.510036369897362
-0.5287984365745
-0.4531599735506881
-0.5421030438988731
-0.6250654788287001
-0.6132618769217543
-0.4815291996280224
-0.4402525767122293
-0.5230046666666667
-0.6450315423222626
-0.6940128895205002
-0.6364033041118691
-0.4714193700189491
-0.3227751792222915
-0.43630810704691125
-0.5019715961226848
-0.5142717305508877
-0.5674546772632568
-0.5192189333333331
-0.32742856602603837
-0.3605852881068554
-0.4114550979691869
-0.4806260074395538
-0.2975336805125028
-0.3905033159126307
-0.4307254675095364
-0.6147500841199721
-0.4002131156589143
-0.564686
-0.44084266666666627
-0.5328132355384713
-0.7314677450404514
-0.7165745737712167
-0.5254614640793557
-0.3206054612547808
-0.39872376435524304
-0.5249818707090749
-0.6131982586805554
-0.7215875241153215
-0.5121927409588499
-0.32850847786038406
-0.24077829731851705
-0.4869568402458064
-0.6119614091754498
-0.569213126736111
-0.3998624809573259
-0.43973139417129953
-0.431810626369085
-0.4100149275223133
-0.42625651987244884
-0.5511930374044224
-0.46942151999999976
-0.21299292386438737
-0.33140096342219394
-0.5055562666666665
-0.4394851962120205
-0.4099315051932777
-0.5275199788977024
-0.30654989560723483
-0.5088038912998555
-0.4715338474043537
-0.4011631125267677
-0.5898164560918887
-0.4223519870360668
-0.363640973341599
-0.5774273248427058
-0.4135276161984016
-0.5538161721137945
-0.5475134409031354
-0.3900923744506138
-0.4740194669584588
-0.5993028620597173
-0.5065122177144038
-0.4947604718854741
-0.561146903517697
-0.6213205022842376
-0.5579447714822748
-0.60687771523042
-0.686078481723806
-0.6000702283010783
-0.3707855555555546
-0.48902840775258616
-0.5878218192448244
-0.5784330297859466
-0.5195428765271318
-0.4432141062202933
-0.2807052545291727
-0.3861026119602506
-0.3573085488708898
-0.4737833305410745
-0.49655128
-0.2421898295102292
-0.2673286831999046
-0.26330655323080726
-0.4183405152955544
-0.21680485809740271
-0.2822954751941795
-0.4348957020500214
-0.4711127684295369
-0.2279473447028417
-0.28676999999999897
-0.41796862368257864
-0.4720694978678844
-0.6369894187434345
-0.5950577648463987
-0.4927979101469801
-0.3607947851075642
-0.5224327968746135
-0.48912370053291804
-0.5967573524305559
-0.6614176965649142
-0.4131973786529224
-0.2820681994007837
-0.16323820326926744
-0.4508954327588343
-0.5966388675346151
-0.5388741000319667
-0.45903157802463407
-0.5390512358810281
-0.42847997271317867
-0.5553249146714928
-0.41779983247410546
-0.5236980609888887
-0.4508533777777776
-0.22133945062839985
-0.3270340304470613
-0.4926064860177723
-0.3844212493480139
-0.5786737658495779
-0.5593150308647127
-0.2819666666666667
-0.5280436400892367
-0.4107083429841001
-0.5340235325251806
-0.6966947388471678
-0.4186268704404072
-0.5352076744848869
-0.4768970197498745
-0.6936080804265718
-0.5966124218749994
-0.6808548140111591
-0.6115543416144699
-0.5092624823916839
-0.6620400000000002
-0.6104776512088631
-0.6349146331886757
-0.36278631122132593
-0.3994172506985673
-0.5027578360198389
-0.38515510057539687
-0.47665564060321225
-0.41917304029758207
-0.3185293160713169
-0.33012388313278973
-0.2500089837020268
-0.27231252340783146
-0.3992195519735477
-0.3217620813921852
-0.22700880665505793
-0.16140602608338728
-0.34385394161113764
-0.2724581944782344
-0.19173850954950886
-0.35942320312500003
-0.26045571165808923
-0.19478756512658513
-0.1798302397189503
-0.5163391531308122
-0.4846312458334891
-0.6170287515750208
-0.543842692002057
-0.3495133695485357
-0.33344865401034324
-0.580840887184301
-0.5147778019379322
-0.5983912593998996
-0.6827272558756067
-0.3972606786360818
-0.20633656617282337
-0.20213876666760197
-0.49596683653647444
-0.593852116269952
-0.4781449973482061
-0.5545013238363533
-0.5374938536547106
-0.3375520000000001
-0.6044193981649254
-0.5141736342524345
-0.42769975757571105
-0.47562663594406557
-0.2829748635511713
-0.37879423894580005
-0.42682399977681323
-0.4450384072699703
-0.7104480383092677
-0.48056934031868076
-0.513183618433458
-0.41812551349018534
-0.6955002479322663
-0.6722437838541665
-0.49953561364850313
-0.5876195675250212
-0.7101439789212646
-0.60759584
-0.5436250547614917
-0.5420258747675138
-0.4460694389336635
-0.44192134856187315
-0.5272545274182859
-0.2710091179761396
-0.31128805587272795
-0.3092212164172397
-0.4056753210431057
-0.40057340360580507
-0.30584761737137156
-0.13567419070529999
-0.28537040768753935
-0.41943775463444294
-0.30508576526633296
-0.20545684347545287
-0.28255145071295734
-0.3892327430753202
-0.22048915968019978
-0.2977037803819443
-0.20911725027515346
-0.32177394912300133
-0.29511743645381283
-0.5172434271543703
-0.495481350084603
-0.6334044628530395
-0.6287836692720741
-0.2561393209506087
-0.2517260806478597
-0.5054394723098777
-0.5182803630517134
-0.5151740882133881
-0.6981279377674574
-0.5026333898326102
-0.19186633396585154
-0.3270985849980027
-0.5613435309668825
-0.4961270855281546
-0.4570815827071814
-0.5348362344049673
-0.4465588727009715
-0.5172905084611717
-0.5937222965506609
-0.38434849315042974
-0.44843159363504864
-0.3837994839690903
-0.4225247481098435
-0.37420978464972093
-0.5793201535223885
-0.6599262728019301
-0.46516748168470473
-0.5196732781753551
-0.6834778892095467
-0.5131771839820382
-0.57679860872081
-0.48791586880439175
-0.4220561004339733
-0.4556431146849617
-0.588551554803402
-0.3690390536311803
-0.1540103379431529
-0.22365872923384084
-0.37404323128759254
-0.4421643205814762
-0.4258623096496131
-0.21054078367410034
-0.20723527999999994
-0.39510590388885375
-0.3919262299396511
-0.3247586177612343
-0.3019112151270926
-0.42681848748774426
-0.3364090190630906
-0.3310954105343086
-0.32643313062303747
-0.4579882504489526
-0.47899258007852946
-0.3882488620155046
-0.44509366122395894
-0.5394948184780829
-0.6966197096459171
-0.3294729322311767
-0.1702231867204289
-0.3950562461252333
-0.4342560656050906
-0.4242974281705998
-0.5904588116036783
-0.6140390561123857
-0.2833296747029511
-0.4791825398983827
-0.5465341010501182
-0.4081569380767683
-0.4650172009714149
-0.4304412352886007
-0.5324892784819638
-0.4558310841640994
-0.4068390678239309
-0.4463340824943058
-0.43755078885899906
-0.4467171761116278
-0.5851427787933269
-0.49196156058164325
-0.5642477731762764
-0.5225218194947359
-0.33357803273040515
-0.3862409220498168
-0.5199247803948664
-0.5025831979096312
-0.16401998835486745
-0.18356311965282088
-0.3483354356211081
-0.39530767899675884
-0.4210718744742254
-0.35789319539548337
-0.21160613333333347
-0.3872062848394265
-0.41776380452378525
-0.3770163277758256
-0.3717505446217549
-0.4288040969406091
-0.44451070481330374
-0.40865202745999313
-0.46436914299108256
-0.4708842304596547
-0.48895838552971604
-0.26140400000000014
-0.3932396385106322
-0.4060967813751723
-0.5954785379717328
-0.46733217886293527
-0.18349996966892138
-0.32127600124000244
-0.43277078471369834
-0.46256639636170854
-0.6067429337527274
-0.4480864386739969
-0.5624343069700737
-0.5015836968950987
-0.4569576224232161
-0.4142428072916668
-0.48666547551146944
-0.4740433508217053
-0.491845679508689
-0.5236089449845754
-0.5344379200000001
-0.5736393713577186
-0.26728666666666706
-0.397088604214381
-0.3909574298736978
-0.4563165663324888
-0.2916141439931905
-0.1894940834883241
-0.37800910725356407
-0.43765870923382605
-0.35563228121007273
-0.3769891615917668
-0.27628547815664356
-0.45087335089894603
-0.47620782167802683
-0.38131230724138665
-0.4138088541286716
-0.45118527794998947
-0.4807580582328437
-0.4539595002801135
-0.4487981905821654
-0.40279245684754544
-0.3609
-0.3385024332982001
-0.4359520501521803
-0.4504479125135296
-0.5038311599230615
-0.3181109038675864
-0.4259257031250003
-0.4976762405178797
-0.5551312897701136
-0.5869127854635393
-0.6169336345887423
-0.5615041110239501