<?xml version="1.0" encoding="UTF-8"?>
<VTKFile type="UnstructuredGrid" version="0.1" byte_order="LittleEndian">
<UnstructuredGrid>
<Piece NumberOfPoints="1536" NumberOfCells="6750">
<PointData>
<DataArray type="Float64" Name="f" Format="ascii">
-0.6696666267799201
-0.6612
-0.6907758761699289
-0.6917678262756521
-0.6999902151404302
-0.8019075117665017
-0.5878483239794948
-0.6104574088541668
-0.7538174881537784
-0.45071217591933616
-0.49474442033477994
-0.6166409168654317
-0.48542569957219867
-0.566346
-0.6256061431624192
-0.6329957364730018
-0.759047501549907
-0.7399094330058543
-0.7678143850623256
-0.6343045215953713
-0.6082173729551288
-0.8656808106084238
-0.5861150836949788
-0.5081019397409079
-0.7981458530299007
-0.39289156356566163
-0.6947049222672331
-0.6187998623109577
-0.4150553931804097
-0.6811963265387676
-0.5863901669302701
-0.5231865830331853
-0.5687197424556781
-0.6674652899745778
-0.5204603344492671
-0.5281376846605791
-0.7654487502336861
-0.5569901053936763
-0.5055754581976367
-0.6593943324461993
-0.7884090303250741
-0.4099225473125258
-0.7631523515314956
-0.5283877402355858
-0.6936290595794167
-0.3226800745166077
-0.5279488516680803
-0.34659443756974584
-0.7575194923422651
-0.6055739533133684
-0.49248418246415376
-0.4410773975091562
-0.6280152722171425
-0.6126679719345746
-0.5485384024857788
-0.5644218855396838
-0.54658788871341
-0.5784369050113699
-0.43905205592064495
-0.30163191902701586
-0.6903477099131817
-0.5120707646207894
-0.5129027397663891
-0.705353287924166
-0.6703149532241741
-0.4329451237476973
-0.4872611119048296
-0.7563061796629724
-0.5793528715936294
-0.33343649104897516
-0.5829547618236126
-0.5398812688572018
-0.7340686881655305
-0.4695220006227134
-0.307024524405869
-0.4336386253811318
-0.35357960730820676
-0.6079858639995881
-0.6556235094577989
-0.6200698817340269
-0.4588591351250422
-0.5321909099974712
-0.6318806148552804
-0.6295141722312633
-0.5430903887778175
-0.5592680447741577
-0.5885143194675111
-0.47297484973299836
-0.46916509882207086
-0.26050091620739624
-0.5976901851908724
-0.5406499999999997
-0.6164996331659324
-0.5994799420942557
-0.5838799696180547
-0.683120943274557
-0.5050426736132859
-0.6838641941351183
-0.5224641826770918
-0.4812100392643099
-0.41817090776966653
-0.5914763841280574
-0.6528306585123859
-0.43734226644843344
-0.37865133333333256
-0.5179943631788487
-0.5141833333333335
-0.6887821648802176
-0.5763128339826179
-0.3763241803779856
-0.3215817276296753
-0.3710888248408603
-0.4977860052999703
-0.6902823364329879
-0.6069136971648637
-0.5848202252671176
-0.47344284907453343
-0.6315729289023099
-0.6424796789160251
-0.5803540538194449
-0.5846578903673693
-0.6024932681102956
-0.5381767338293042
-0.4621847343513145
-0.4653980000000005
-0.34181135565199416
-0.5440081743719042
-0.591998
-0.6737960616281232
-0.6120319751603013
-0.6924337760416667
-0.5858267453727315
-0.587343903514889
-0.6385710886546808
-0.5597997665771856
-0.5437062251471979
-0.37040830662009805
-0.5832958203776338
-0.5092514006496152
-0.5172968395959323
-0.53365976
-0.42980539635301446
-0.4694183005240233
-0.651719229151293
-0.4790601899776239
-0.42448723702371827
-0.4239456887786734
-0.48042635099111825
-0.406746
-0.6010430524163083
-0.6711290227505899
-0.42684825162026224
-0.3702669241100844
-0.39764451574961607
-0.6182788286480466
-0.6991483940816517
-0.5038218810491385
-0.4171814144708286
-0.5674133714184934
-0.7232173554815801
-0.5260683196375507
-0.3978463880208332
-0.6574056485041134
-0.5521021019006495
-0.3298070142591443
-0.49375393569902637
-0.2802887199999999
-0.28861206571605696
-0.5952071884183769
-0.5637578983261001
-0.5871538567776116
-0.6847182794429453
-0.6101948925330534
-0.515934142729214
-0.7124532024826634
-0.6119516614878179
-0.5228896708855792
-0.5382948159848163
-0.659349871371255
-0.596793345567266
-0.5011614611237037
-0.5280072682899809
-0.42141770838674214
-0.36048367775711254
-0.4929149503865807
-0.5372030852242404
-0.5041837263276977
-0.5540393307243683
-0.556436857037142
-0.36134843627420565
-0.3712532304790492
-0.6002388270642615
-0.5710819114108242
-0.4739009348763508
-0.46540425104868827
-0.3331781184469238
-0.23742741165529993
-0.41931230859366125
-0.698967393063377
-0.5515278136811018
-0.4398793852466864
-0.5112919989043465
-0.7282648087241413
-0.5318381035556966
-0.3153011490918915
-0.18049801990034745
-0.6893171890566022
-0.6602612744781985
-0.3067581106773067
-0.16617770610803187
-0.6796737253569907
-0.3467275333953339
-0.0939741582913707
-0.3969332870985643
-0.048873474059928985
-0.1263985919659527
-0.6476864094208407
-0.5217924478197975
-0.5208589764999285
-0.5858595947509817
-0.6903117937868705
-0.5243147683709726
-0.7206554045197714
-0.5215461861618643
-0.6150916111971331
-0.5415165478404625
-0.6825386937119542
-0.5389798212027284
-0.6363796928038571
-0.5316209225854199
-0.5298205333401157
-0.6098055817758928
-0.5582140617057093
-0.6410631611591957
-0.5338337533756216
-0.5676824923167652
-0.38056397189501984
-0.31535037073775574
-0.4003860139823032
-0.6097694440696011
-0.5934771516655265
-0.592577539524695
-0.5420558637315189
-0.22011738871856443
-0.22522277375888242
-0.4599467919777252
-0.678012426554035
-0.6102714113246533
-0.5284992508015376
-0.1431478021521935
-0.17828988014052463
-0.23866856676520398
-0.5892537562491141
-0.7008406501948321
-0.5749207552880361
-0.6668532129472152
-0.7200992324033897
-0.3549623182876082
-0.1462491946021434
-0.08009944774578538
-0.7602482370674207
-0.5049847656788581
-0.13602827705307033
-0.0927847482695393
-0.5938749803982075
-0.13784421581843512
-0.07310741096211781
-0.20376819171678826
-0.030367142570365196
-0.0697249285107554
-0.6331103164838549
-0.59466
-0.5911993713187426
-0.6672405554432429
-0.5540802317708334
-0.6574026257037894
-0.6226026075635464
-0.670087013070214
-0.7047302945170291
-0.4797200632362059
-0.6739268439347366
-0.42534560000000005
-0.7143509429009604
-0.6110082524088473
-0.641647925191155
-0.6110132177891927
-0.431858830750155
-0.7109959007906519
-0.6351796544232083
-0.6512937895914219
-0.525246570916857
-0.5572452655309624
-0.630174992864564
-0.7063129597706407
-0.6579101681568376
-0.5680824169096593
-0.3452336924984501
-0.25808181130330066
-0.28758282062399326
-0.5972234866566292
-0.7341086418610226
-0.722826181921885
-0.5247409657091694
-0.2477113955808298
-0.15693941240727802
-0.3443257304445328
-0.6834410965581927
-0.7833834064338362
-0.6651941498895562
-0.13632800289984723
-0.31099199999999994
-0.215737690306504
-0.5133852097036672
-0.7763623605152579
-0.7401864177941154
-0.7982948773042066
-0.6844700057036573
-0.3244689655906497
-0.14513069262190156
-0.2405238013516026
-0.7672360004408539
-0.3863525238279569
-0.1606699872705106
-0.2752993984374999
-0.42491879591819176
-0.13988240948028988
-0.29446942405455667
-0.13628595613355082
-0.2229596799999999
-0.1653068803471791
-0.6950189991113317
-0.6977433333333337
-0.6704861675656685
-0.6392496350508702
-0.73378468401059
-0.5812372092013888
-0.748956074645459
-0.45204383653647445
-0.6647626982923446
-0.6537499164411467
-0.7265672643108082
-0.633525691546327
-0.7487190726633924
-0.6694644581551255
-0.3620221333333333
-0.5491198631549797
-0.36758204794378996
-0.7553962937353965
-0.6922122132134555
-0.6951432627880316
-0.6924088888888883
-0.49294703822250613
-0.6457116008176018
-0.7643391655281353
-0.7050509750841694
-0.7021072656567534
-0.4890406621202735
-0.5021853332138371
-0.7419589228445598
-0.8090517925232157
-0.6850352343750002
-0.4853940854816566
-0.34841296893126733
-0.3991499439018415
-0.2985075370806385
-0.5273563830509063
-0.7629148866845767
-0.879409896540608
-0.643180792908379
-0.4554214851096378
-0.3089727593376612
-0.4085313584406364
-0.6602498703862646
-0.8695323999999997
-0.8187320212009604
-0.3367632456876208
-0.47140666666666725
-0.34023564098558706
-0.57508303755484
-0.8104807028063656
-0.869480947854239
-0.8724842177866935
-0.6667491158515735
-0.3939411276326832
-0.3064440332211414
-0.4645365269597213
-0.6928591757408128
-0.3817510730777774
-0.3338782244346961
-0.49528647135416737
-0.3361937182925731
-0.31674360428544907
-0.5131448553420136
-0.2441570013584555
-0.44087666666666764
-0.3567968113246548
-0.7930875859907278
-0.734480450506303
-0.7258716152949062
-0.7770682860385821
-0.7420121388716676
-0.8077784811816554
-0.7021825814929096
-0.7194612461252322
-0.8213786324892487
-0.6344095268062716
-0.6576349643410856
-0.7323348671018853
-0.6017757421923978
-0.64814
-0.6939522419244837
-0.6471871570876472
-0.7045754403802443
-0.7851495490133334
-0.6212613834077069
-0.6040133151947132
-0.7281422584460376
-0.7174421077390645
-0.4813457468328916
-0.576836782166957
-0.4270506593924357
-0.7955276353948714
-0.6070928718485669
-0.7009160913495563
-0.7658606666666669
-0.6495937774624534
-0.7198261615095305
-0.7674495187098339
-0.4321006183093255
-0.46715878560574137
-0.3960805654584702
-0.6237573885844175
-0.796763952012888
-0.6953161176791857
-0.7214143627833921
-0.6467859999999994
-0.49416411753669637
-0.726752406208199
-0.8088579507328787
-0.7024953142361116
-0.6153693862814386
-0.46862905177827585
-0.5917660861796048
-0.8501168007576895
-0.8026185404009102
-0.5926505234375002
-0.4497751473079104
-0.5265693649432993
-0.655732483777639
-0.4997067313316285
-0.5333979830360143
-0.687330537094441
-0.9195081599999998
-0.7760376729168784
-0.5553814083672617
-0.5336988972748903
-0.5563130756556453
-0.6835549366553395
-0.8440508533333332
-0.8946500892746433
-0.47277215558112085
-0.5472380657160568
-0.4386345182676444
-0.615095854776382
-0.8054965644450288
-0.8971041835089898
-0.8493341831113698
-0.6156303435295118
-0.41706275074792026
-0.4260950865873172
-0.5502093447268521
-0.5963776964829179
-0.4209070787270093
-0.4644274226871114
-0.5472420163859616
-0.37960621343362844
-0.4870588957860586
-0.5459609488089325
-0.43003492783387703
-0.5282907632982019
-0.518149208870323
-0.7806229017703387
-0.7555750625440499
-0.7391714184595539
-0.6716398303767354
-0.7380196442845945
-0.8029128555892983
-0.5247918035744787
-0.693056227163535
-0.7250423994670548
-0.49112927763326114
-0.6521502351445783
-0.6310438802083334
-0.735988050993908
-0.5188959546041981
-0.5560385120892749
-0.6531212765034099
-0.7541873745239872
-0.6324412463233563
-0.6167091344341101
-0.6126771480805734
-0.6536152420372221
-0.7241609124655928
-0.4687709289307664
-0.6005318425294482
-0.3544492908969837
-0.6534766890488742
-0.6344237589579538
-0.7426126518053188
-0.5958097431344344
-0.7108178180753598
-0.7134039999999998
-0.6620242288262541
-0.6910660408310586
-0.7709950937373763
-0.4956039093614373
-0.34046397936116485
-0.42338665803856207
-0.671424996900186
-0.787446996039698
-0.6861321764515312
-0.648644804315209
-0.57567586863677
-0.5631592968092096
-0.7699612088875862
-0.7855837812481306
-0.6081145874999997
-0.5117982309209327
-0.5872513915745606
-0.6951309281965797
-0.8550977840600674
-0.6815089578425296
-0.5070571107253383
-0.5562471042741207
-0.7688081835089894
-0.7023441279189907
-0.6809042125610637
-0.5843338287471105
-0.6108344510775384
-0.8106364960000003
-0.8106029253506618
-0.513246541326265
-0.5686136860668238
-0.5628264939198443
-0.6413939126918747
-0.7602835914720673
-0.8339303729696218
-0.4620044986360577
-0.5074977526348419
-0.4155725784326491
-0.48060491548865397
-0.691026954036829
-0.821797944559174
-0.7366365864930379
-0.47356784642281485
-0.37725963462039397
-0.42388057508630445
-0.4668229549606959
-0.5029379798317991
-0.43983440031687054
-0.47053140478210936
-0.4466058435288153
-0.47090769619781386
-0.5521392104273145
-0.4556595925964218
-0.5764866101459114
-0.483387078983261
-0.5329183997234189
-0.6941473413928493
-0.6346597699432036
-0.6341455463028184
-0.7189664394251248
-0.5603285486381263
-0.5361343334252449
-0.6245580248677366
-0.6655579047317425
-0.43511543008237835
-0.5106601570480863
-0.5972501089096803
-0.5390478239305642
-0.46938458709023284
-0.5412499120037944
-0.6874311550884123
-0.6387189918181494
-0.5513205052527026
-0.5512862523248605
-0.6109353907832196
-0.6654319120789549
-0.5314117100520649
-0.47788661424363893
-0.7200706624922509
-0.6472976276090101
-0.6113852488090856
-0.6579112627113891
-0.40679987404177825
-0.40127908655461936
-0.7707636736985493
-0.40545591404596387
-0.29970601844792805
-0.6099435771690325
-0.6806007641316003
-0.6485578440354179
-0.6985800055796653
-0.6616516858855136
-0.6616597945463755
-0.7054440520139097
-0.7065028032893518
-0.5222041020458762
-0.26725292258418437
-0.4793234419184274
-0.6467884746269891
-0.7597756794718863
-0.6577583133852776
-0.5670971762145124
-0.6185408837914163
-0.6077404801112883
-0.7571381679685892
-0.7070812713500575
-0.5106784331016
-0.5269091833533461
-0.773119263070882
-0.7232429552299058
-0.7645013715395739
-0.5628857211855339
-0.4788869784988976
-0.6769928641806628
-0.7801518454226074
-0.5601370677119648
-0.6505077624166131
-0.5514770340118478
-0.5181128135242913
-0.6731152353130804
-0.7462182710453282
-0.43029464596257144
-0.4740434487545593
-0.45567272227711436
-0.46106415923614513
-0.6075838711028466
-0.6979232657804485
-0.352106492456546
-0.4518442322793964
-0.3858632648361507
-0.32959957206423757
-0.4586918953833437
-0.6715175309243673
-0.5435466000847883
-0.34639720061996226
-0.38693156288848024
-0.31459149732977915
-0.37579444338635914
-0.4284471396461405
-0.47098246634463853
-0.3725101246317733
-0.3525107133312449
-0.5309286814223297
-0.48462298197861226
-0.38923245192501693
-0.5612639588602925
-0.4497324789005992
-0.5361781803668967
-0.6242419473720463
-0.5408656111363043
-0.4257789104732817
-0.5012386386886868
-0.7030735929715765
-0.5565619911807022
-0.4533450575825437
-0.3991185877393597
-0.4962915042753599
-0.6135356
-0.49098432875606335
-0.489682642115243
-0.4389537096335854
-0.57079516718393
-0.5269905945565846
-0.5691141531600524
-0.5975754598487982
-0.6083699289101121
-0.6100422088677638
-0.5926562326927051
-0.6325446666666662
-0.6149889881346571
-0.47017759128027764
-0.28336247799290754
-0.47415669750382977
-0.8153295546962581
-0.7445460204587722
-0.6522400863041719
-0.6011488438456124
-0.38789063014204644
-0.19680544061941477
-0.5184209283580227
-0.19876917171242423
-0.32646022377333916
-0.5420517564013382
-0.6807307074652775
-0.7647614694154045
-0.7336022793264257
-0.6873616470345109
-0.6709607203213879
-0.7718328679137493
-0.6651802184335606
-0.4795621419577038
-0.3143849844019147
-0.48624107386124105
-0.6161597333333334
-0.7593334860982406
-0.6313331522456767
-0.5629347939222734
-0.7491126666666666
-0.6173180041330852
-0.7337693322587314
-0.6554688835033301
-0.4587050149528356
-0.6222434345175358
-0.7649674870841076
-0.7019637446623178
-0.6980120628246488
-0.459157478412701
-0.4762874079861115
-0.664746828303855
-0.5878388561852865
-0.4685518803674214
-0.5197449414519183
-0.4944271208118424
-0.39533074994833656
-0.516044562050011
-0.6646461310820458
-0.37159241169228635
-0.4035510018172744
-0.4310045919134852
-0.3515510384148462
-0.40112010666666714
-0.5160191783316159
-0.25315241312265374
-0.4980864454780357
-0.37178110805282866
-0.36803871278647926
-0.31844663922298005
-0.47128116924984575
-0.39514386211031344
-0.36647437827439683
-0.40118563093015774
-0.20745857750352403
-0.43242150425392906
-0.4044200005158138
-0.4617575065128125
-0.27434819528325366
-0.36636056355781627
-0.4954284923759928
-0.3875919684376577
-0.35616257178352256
-0.4814216231049846
-0.4494923234728682
-0.6149488032231654
-0.6097833333333329
-0.5533653687708869
-0.3652147002517356
-0.2530472102389432
-0.5169698438422478
-0.8010334841909484
-0.5823364131707652
-0.5099677833924842
-0.3859968377127075
-0.2990106829469817
-0.5974476085973499
-0.5535230977474682
-0.5601604429866568
-0.467875801217082
-0.48049133185952875
-0.5444073761796514
-0.645907494957845
-0.5732107736376963
-0.6564620099390848
-0.5690619472868219
-0.5495266666666672
-0.7804960000000002
-0.598273320244418
-0.49060830587995125
-0.26552581437153905
-0.1973131527850395
-0.6199507051615927
-0.8674803439486746
-0.8163833521731046
-0.5678920095486107
-0.4062130042888737
-0.19796053287901424
-0.24736942282091642
-0.19285536554586172
-0.3666672675131597
-0.5050889701728997
-0.7996627661458331
-0.8672167168704769
-0.7813487610098705
-0.7665144
-0.7022024504856526
-0.8382243374876935
-0.7276601180409177
-0.4575516888888879
-0.3863690348525947
-0.4824885933732859
-0.64786464
-0.8093170210567933
-0.6219906884111487
-0.6486897696075394
-0.7480888888888887
-0.6235221408555488
-0.7751480503559863
-0.6079007747968261
-0.49251798229166655
-0.6634030829217216
-0.5776865057500846
-0.7075024399532112
-0.6079092230337829
-0.38966381934283945
-0.5182872989004627
-0.559121822179708
-0.5142525950093956
-0.4569949400183741
-0.510014503136024
-0.5132658862641472
-0.4030302748501758
-0.34376393600000016
-0.5353745946124188
-0.4299829892023763
-0.37456191207534245
-0.52010879242383
-0.4523821309447987
-0.36549702222222247
-0.31989115957842534
-0.3205106943224862
-0.60679
-0.3424152211270393
-0.5024950886501235
-0.409755567640256
-0.41244705793207986
-0.42239867015758925
-0.4532105961216773
-0.3754112301557199
-0.23635321626286468
-0.6019307322214643
-0.4116466527125126
-0.4201889920982946
-0.24189258960624738
-0.5035997005208334
-0.44644367630044063
-0.3451012889556564
-0.4131516429014259
-0.48781300174939185
-0.5058067999999999
-0.7155461748295102
-0.6926813333333328
-0.5503785828411664
-0.43706014678948973
-0.26434944095536655
-0.2644818331950534
-0.7223725509040674
-0.6046238177309365
-0.5451520311327746
-0.4896564442640609
-0.34189900066684853
-0.44058233172143074
-0.5784194736515808
-0.5714069666892901
-0.5792037834112342
-0.4828121594470917
-0.5452475482537712
-0.6024396810880238
-0.6297555212530997
-0.6086396577593159
-0.49284221250646004
-0.43472799999999995
-0.94610605373011
-0.6936931394382779
-0.48694680485415104
-0.355718387246476
-0.16841885291553552
-0.32477712081058757
-0.8899300424054425
-0.9735487111360289
-0.660988296874999
-0.4172052447200348
-0.3112486527997174
-0.15501760620669391
-0.3214486073142913
-0.397301039994489
-0.5912439189915267
-0.9314731040267444
-0.9001189005413259
-0.8154436005373017
-0.7727813333333332
-0.7849930314361906
-0.8684336727807459
-0.8369875355835462
-0.521866933333333
-0.4343527747932698
-0.5019333601983876
-0.7355183626865057
-0.8402124722625941
-0.676630529437471
-0.7223350088246844
-0.6181249569470281
-0.6637467236854366
-0.7954328075166331
-0.5542765399832459
-0.5993204878472228
-0.6122435719125184
-0.5161131957621912
-0.6970469058993335
-0.4352012563339543
-0.4764673525521808
-0.5846731507295321
-0.5542887955560473
-0.5750228580631106
-0.47451078456607626
-0.5665344736188177
-0.612580982774798
-0.5757025213586501
-0.38610792000000066
-0.32556181914958715
-0.5828332901399135
-0.38893204472146786
-0.5624149436321003
-0.6264128704860356
-0.5832014379003904
-0.3503637387890067
-0.5513476855527075
-0.3289089354162958
-0.5396113185550407
-0.58224263353954
-0.6108255087485109
-0.5391862783891931
-0.49310449847972687
-0.32455112063951846
-0.44157578169212736
-0.44920068464254476
-0.3733318833910182
-0.34550416392550914
-0.45401371998598555
-0.4126930957819246
-0.5804643410431681
-0.8204083601983873
-0.5877425658326074
-0.4881849142748044
-0.4054754301400745
-0.2261259072769021
-0.4622835566166726
-0.6369843709218195
-0.5820507798481299
-0.545500782464004
-0.4988252713547166
-0.36571262703037816
-0.5566919696643575
-0.556041911956518
-0.5851864127413507
-0.566814230194277
-0.500653004830025
-0.4762403270095968
-0.5939195659722226
-0.4337021954243907
-0.3940377570326796
-0.27860419611489906
-0.9343324629055593
-0.8280413094392869
-0.5529173146295078
-0.4253876593835446
-0.3119834438164711
-0.15846497370555318
-0.84619195639595
-0.9729604982709089
-0.7958059403114482
-0.4986028395642866
-0.4128536287662736
-0.2746123595078966
-0.46356393348909847
-0.4620286187394093
-0.7085063689616345
-0.9407499110643988
-0.9141980310463406
-0.8148927106151406
-0.703712695184956
-0.84732263910626
-0.8693246048124608
-0.8701205031097433
-0.6099360844664871
-0.4591450732490084
-0.5525781895945922
-0.7937342234593922
-0.762286709500407
-0.75988016679484
-0.6982118978409395
-0.5678640297582139
-0.7252778849882525
-0.6328933751766889
-0.596843225069602
-0.6682504654494518
-0.5745531830845718
-0.5960282785855406
-0.5167296142448967
-0.40880049693462905
-0.6656246252882806
-0.6237703696810741
-0.6297990677382845
-0.5386667621201129
-0.5582140803885104
-0.492741318056728
-0.657805868055748
-0.7234004955480929
-0.6638540278239287
-0.2797903075759867
-0.5053196675023298
-0.4399054488489837
-0.6536947315631938
-0.8056019020872075
-0.6636052474164027
-0.4143457281064875
-0.40167126419089816
-0.6216370616316312
-0.8346934640040414
-0.5771423266387237
-0.40977725608414883
-0.33618881880046514
-0.4533814446206979
-0.37641382798098805
-0.496268833595527
-0.8018256588826892
-0.6482009592369624
-0.5648191875565071
-0.5062286184269668
-0.36874923778203095
-0.23319442131872584
-0.5953600234936323
-0.595393661139599
-0.5749655308894309
-0.5622554451174863
-0.4308562341806163
-0.49118065007212414
-0.5187104142886033
-0.4932066190455428
-0.5512226606736935
-0.4227057703407224
-0.34236097136157273
-0.42188749999999997
-0.2124698471178665
-0.3037302161714716
-0.19879716160363708
-0.7974959999999999
-0.800816882733148
-0.6502965717941418
-0.5174544704045593
-0.47029553830681253
-0.23919971420253547
-0.8113208893021978
-0.8703424392832783
-0.7623532825205109
-0.6053827943401138
-0.4993983893118412
-0.48849031300669227
-0.5357762114334516
-0.5500160682946961
-0.6931471020865456
-0.8361613526041665
-0.9060413956862131
-0.7708121350622942
-0.6437896236825791
-0.7961680591016109
-0.8305523726241936
-0.7545729682579049
-0.6340250876902936
-0.5160174837073787
-0.6193912357047574
-0.6733981759999996
-0.6503588069166694
-0.7624757613469021
-0.5921566841967375
-0.6082637945167734
-0.6199746487290764
-0.4405803318867529
-0.694569091587251
-0.602196116231724
-0.6071428996744553
-0.5536713566067695
-0.3014134239466805
-0.576190396921588
-0.7362245854731916
-0.6312623743907114
-0.5563173338949435
-0.50868946683199
-0.4471940165079464
-0.5117360836993305
-0.7157044355577556
-0.88220659766894
-0.48205085535068615
-0.36077285875907344
-0.4568569498657921
-0.7973033473582682
-0.9464969636781747
-0.2919000671360524
-0.4486126130353251
-0.7964776959129628
-0.4620176096879129
-0.32745466819590824
-0.43292060738097804
-0.6415373333333327
-0.5831878719584117
-0.637307476700954
-0.5671966888921217
-0.4978851640310075
-0.22460521714264473
-0.5031371204794385
-0.5129456251458641
-0.5855205535660329
-0.49694292798883827
-0.46564560000000027
-0.4776732696838189
-0.4403115713218712
-0.37942362488612935
-0.36915171357718535
-0.4466554908038847
-0.2521349605899414
-0.20475108240957715
-0.10431307137063105
-0.3514007073901812
-0.295828
-0.7100973333333332
-0.6546437542315074
-0.5867189111903025
-0.6202036942699164
-0.5593652405620997
-0.4330669400622522
-0.770847400721074
-0.7927335660404649
-0.6124202595486102
-0.5799585170178091
-0.5920575062243164
-0.6011601138184571
-0.5876018632803938
-0.5694498240188116
-0.5742411256457935
-0.7122134001736105
-0.8271955469532427
-0.6669494616332834
-0.6087413728042982
-0.6084919461294155
-0.7574668858923661
-0.5724566360818346
-0.5643316799999992
-0.5714038924920708
-0.5851257904525725
-0.4417473599999991
-0.6141529349528908
-0.6069251453442175
-0.5253906442133066
-0.5947599503875969
-0.3627748386030159
-0.41866594793076933
-0.6801141794215847
-0.5251346653694265
-0.6120328442343811
-0.48612783013019234
-0.27271486220017854
-0.7223177610847196
-0.6865218199693485
-0.5841299191676534
-0.47841120663939246
-0.4012762828467276
-0.5658567762994794
-0.8666887722256656
-0.7108196499317457
-0.310160102265677
-0.5617801823807067
-0.9059838126486243
-0.3003238553420129
-0.519388342040047
-0.3567479666885617
-0.5474977777777771
-0.4700802674113404
-0.5823953593182495
-0.6000331874326298
-0.4738391275989671
-0.34054233519322136
-0.4851149321485159
-0.4480711941242716
-0.5430830063572051
-0.3840618844953372
-0.31312135999999985
-0.5387719270510438
-0.44536804900077714
-0.32405366095443094
-0.1454676663020102
-0.5544445915133984
-0.34159137691089136
-0.1278943816839737
-0.2472588543617086
-0.5130176020671843
-0.4723566666666674
-0.6940286187228768
-0.5823691381982757
-0.44901208830595235
-0.6220870420141739
-0.584120587579079
-0.483455637048337
-0.6276859723032037
-0.7552177316236167
-0.5225294169560174
-0.4780799275846553
-0.6209204915549639
-0.595393235440084
-0.60362167782494
-0.5200983078817937
-0.47335075532134674
-0.6494107075583798
-0.6211142568370209
-0.5256170730646242
-0.6052081951421188
-0.4171248561466092
-0.6161268021343669
-0.49956086065621763
-0.45530048888888847
-0.5561827888148408
-0.43611599297375436
-0.3539099618764208
-0.6022819180998357
-0.42793492883796297
-0.5681780015805381
-0.5449933333333329
-0.24209890226431843
-0.5159728218531837
-0.5812600318652481
-0.5576659448239663
-0.600136265732531
-0.4027300632075353
-0.7246899957020214
-0.6257829749246677
-0.5600484374999991
-0.46699712543913924
-0.6787707086883734
-0.7407746991983917
-0.3840722666666659
-0.6206667774455302
-0.329128685678859
-0.5830685286216152
-0.4601398536713373
-0.4773549305173462
-0.5940308221572006
-0.36124716286080516
-0.3114334581525107
-0.5655591766999034
-0.47800374766392845
-0.5291270650099881
-0.3557149551871949
-0.09835239930564098
-0.6313987694250842
-0.5367277057534471
-0.4349064944953173
-0.11439268504819806
-0.6580540754909868
-0.5484189267117849
-0.3045455104166665
-0.49417812552958557
-0.6478257070917653
-0.5885532961355647
-0.5680134066955983
-0.626603146852275
-0.4149296207535424
-0.5333982132560581
-0.5710615763134874
-0.3920062869351833
-0.4031159519318069
-0.6175407641524123
-0.5308764918644223
-0.438920456143066
-0.5541426700309983
-0.5416632095231632
-0.5622110157496688
-0.4830698729765099
-0.4417095781686313
-0.5896172128377501
-0.3687168783609139
-0.4745805788697873
-0.5965239999999999
-0.3955030365738364
-0.42035374946654985
-0.5334598078899399
-0.40316836429014313
-0.48654747431202855
-0.350049063133584
-0.44003420565406093
-0.5122415732050231
-0.4083147027383836
-0.642135791431583
-0.31853261048425136
-0.5355187123962674
-0.5277551160737436
-0.6469445182291667
-0.46751295984403735
-0.6278089979094017
-0.6171394035957843
-0.5418587200000001
-0.6071803767815506
-0.43226619342839434
-0.5371326699731347
-0.563677471845431
-0.44923803966497283
-0.5692091827572573
-0.31953546930694715
-0.1652401046986358
-0.5983466931998952
-0.5775702654880276
-0.5646751129073179
-0.456924705123585
-0.06772990606736885
-0.7111314760687825
-0.6190461917136294
-0.6090917424194305
-0.31688346497210157
-0.7453052820965275
-0.6628365326860783
-0.5414465060763899
-0.6107768546181395
-0.686156627898647
-0.5712922690638561
-0.3391602260797674
-0.6106675467975049
-0.47410286737686763
-0.474054162169726
-0.5243915903037818
-0.3177916387319572
-0.32575075157134725
-0.3872332391813711
-0.5453879407117518
-0.4274277551964811
-0.48790064281876383
-0.5028214605164149
-0.5056604152834729
-0.44157615211477713
-0.457556061548892
-0.4461949218362515
-0.28645047852656097
-0.522381715230419
-0.5134671215036883
-0.3232085615282925
-0.48075568269306973
-0.41919054998966726
-0.4235161880949511
-0.36973289431664913
-0.4399164616408344
-0.410665976681523
-0.5310192262506341
-0.33084102070591187
-0.46281085416453555
-0.5674938009446643
-0.4364599244735085
-0.5840757216780325
-0.5449924861840799
-0.37428196562650645
-0.6562225124787558
-0.5012451410785256
-0.5515633299031889
-0.37067299321550456
-0.10508340725406437
-0.5247393901202929
-0.7093481011721253
-0.5958515826269228
-0.5686693481652364
-0.22777511999999997
-0.7317208130641113
-0.6981406696995675
-0.6675259690747987
-0.5283115075428814
-0.8088497321427165
-0.6538103230769271
-0.612968313469768
-0.547083015682572
-0.694660258705512
-0.5254714434800578
-0.301932521343669
-0.4653477531877049
-0.5499975318068481
-0.4533958282980924
-0.4831656782944134
-0.3359207315044599
-0.44459508576152107
-0.31397887355488385
-0.47245886502229384
-0.41353625464064875
-0.43223280176851503
-0.4952558479087796
-0.442046692108321
-0.38533468727797643
-0.4206198254783564
-0.34719344770914096
-0.4220893927268512
-0.42462614845821944
-0.3674081542275862
-0.3723430798098774
-0.39763420997759674
-0.3183957790590424
-0.3376273064682174
-0.4488531804488926
-0.27137210018252883
-0.48607247071709114
-0.5024764495163362
-0.37128354108527134
-0.6282105094189631
-0.6091601381196127
-0.5266015477362148
-0.44279058271145627
-0.18131799876007437
-0.5078457412532636
-0.7886578832023546
-0.6491671856719314
-0.5773725614875346
-0.41868453333333405
-0.6952870183249473
-0.7959120075536262
-0.642798928151555
-0.568067479434185
-0.7896215116905978
-0.6652716693389583
-0.5363678683531593
-0.4779070649930552
-0.6935554969523475
-0.5529009788113693
-0.5005299999999999
-0.41078578557221396
-0.5635888243308487
-0.4630680066394563
-0.4327678509582354
-0.42048669571552916
-0.4833532696385392
-0.4108807764265723
-0.4038866909386741
-0.3835266222826854
-0.4572226647680288
-0.40851322168451804
-0.34048326810053714
-0.36099807557330554
-0.44895359895833314
-0.3984477253564787
-0.3024954273763998
-0.36966651547448764
-0.2591791110957326
-0.36057904000000013
-0.3569476800991941
-0.5962800000000003
-0.5798871793007528
-0.7038092691089658
-0.5324848008405935
-0.4497429438146328
-0.35013870841082945
-0.6566848791072531
-0.7751489519148648
-0.7481132899160312
-0.5582183297267426
-0.49627677065509374
-0.7148678239305641
-0.8416305173126016
-0.669075631145343
-0.5082394925068289
-0.7365822566646001
-0.7197974888452326
-0.47587431904458993
-0.5263171400270714
-0.6692445291989666
-0.61709
-0.5723586523239718
-0.5374006692999748
-0.5169541646852315
-0.40214952325119313
-0.4643637964732222
-0.5000129904513891
-0.4124453251248917
-0.41683422446097285
-0.429916807105771
-0.46489595930644884
-0.36623237692603655
-0.39698292725769785
-0.3265613333333334
-0.4097696769388599
-0.3247839760281052
-0.6648692551831182
-0.7186628744252945
-0.6228314641109942
-0.4366709739154255
-0.48852195879547017
-0.7891104435678368