<?xml version="1.0" encoding="UTF-8"?>
<VTKFile type="UnstructuredGrid" version="0.1" byte_order="LittleEndian">
<UnstructuredGrid>
<Piece NumberOfPoints="1536" NumberOfCells="6750">
<PointData>
<DataArray type="Float64" Name="f" Format="ascii">
-0.6286360756921516
-0.50788
-0.7707617386572411
-0.49478460587587836
-0.6109739751079503
-0.6559323815023975
-0.8171257162012845
-0.6823541041931385
-0.8280322158849406
-0.726053118327982
-0.6806181829733163
-0.8492066695971943
-0.551440005022992
-0.5797877128335451
-0.6822885244313316
-0.49928031040495263
-0.5030506472081219
-0.5319750348391138
-0.5096293794935252
-0.6055576734348564
-0.7554818207022881
-0.6822994324001512
-0.4755999492385787
-0.7925223969775352
-0.8240056544117587
-0.7062776652433694
-0.6800631236410865
-0.7845768066249302
-0.5552092983163376
-0.9161046444980504
-0.5950173645295093
-0.5548826553011755
-0.9338899834772755
-0.5016584153234938
-0.7256299079801424
-0.5538243952541075
-0.46089102716702285
-0.5537558703939008
-0.6329213727969005
-0.43862400952122255
-0.6406005237214832
-0.6506977793367118
-0.5988487170652305
-0.5052532401524777
-0.7766823413002356
-0.6250568773542106
-0.7650566259549443
-0.5612623347471378
-0.7724810870506204
-0.7012780994403921
-0.6256536509815495
-0.6178136809931695
-0.7520926678859934
-0.9215147762965211
-0.5862477728134278
-0.5660040752133496
-0.9406137033012633
-0.4626579872166329
-0.7793714432914792
-0.6491003063100252
-0.4425858346412581
-0.4438619627749571
-0.4290127419892054
-0.4267678677053715
-0.5835893238448543
-0.4522222040690827
-0.48236280065951925
-0.5725258927297615
-0.689646757234028
-0.5119181721373326
-0.6184467697306281
-0.5418126903553301
-0.6990143243606096
-0.7273123881619123
-0.5646906626719729
-0.6694660246771899
-0.6668291504547915
-0.6806782749385148
-0.7702167135631136
-0.6721375104340054
-0.6683452291834683
-0.557547334473694
-0.7582488530569406
-0.7889917774237442
-0.5140796423206809
-0.6244054798848375
-0.8319226049359614
-0.5607458473400752
-0.8213583948769879
-0.7794576547965681
-0.4237950571716033
-0.35037333333333354
-0.2666865853865045
-0.468691747384882
-0.28481041084286385
-0.469212328177641
-0.4860977843639341
-0.6185074087539898
-0.5118966561967557
-0.38476124523507055
-0.5095202719238038
-0.6097721942140489
-0.7285734256246444
-0.5680920976516984
-0.4987946039813644
-0.6005057157983026
-0.5749399999999998
-0.69614741832584
-0.7478938406355103
-0.5971895147173601
-0.6038795177664981
-0.6434617819092382
-0.6855461067984513
-0.646719323784223
-0.6915462738066526
-0.630198964524596
-0.6394291970113459
-0.5547207872776662
-0.728850341360829
-0.6038012452350706
-0.5537882188363245
-0.7301812549473876
-0.6142332020330379
-0.7247018363847925
-0.7117885175772987
-0.7560932571912018
-0.3762538190387497
-0.3142089707750953
-0.22353312457417787
-0.30917416085463123
-0.22211576071776265
-0.4763495904873149
-0.29755758051050596
-0.3098746258692313
-0.5581252160946358
-0.5070629656150051
-0.49199960471654625
-0.6803153040969652
-0.6263424450407628
-0.3623467576697099
-0.4202834223863317
-0.4553665692998053
-0.6022317708394826
-0.7846341795846814
-0.6731782901097586
-0.45549141600531756
-0.4977419422048647
-0.485447239488673
-0.5872837611181704
-0.6813236394022923
-0.7588136081210642
-0.6593818759058508
-0.5459972954851803
-0.6067101388749726
-0.6955926530298536
-0.6763176398509985
-0.4860339268152214
-0.5861978988639045
-0.666038499018196
-0.6585692001072373
-0.5426198377986401
-0.4914723155017446
-0.6768845907001532
-0.6645036623466503
-0.45393115803341794
-0.7145372652629883
-0.5497350182201561
-0.64587294514606
-0.2639626634486811
-0.2547635789919524
-0.19033332933774713
-0.14130069992237007
-0.24668853263025256
-0.39824787930062094
-0.10942475764054699
-0.38417364765861245
-0.3557368908883738
-0.46540283907059893
-0.1882427204066662
-0.5032202036696497
-0.3698424949600503
-0.6218703042496542
-0.4274964186000507
-0.4445977016356463
-0.6480402110314567
-0.7419505925190287
-0.4376068186033486
-0.3221496387953318
-0.543404272038004
-0.4180913453398863
-0.5124760804269043
-0.7902883465843745
-0.7838644867860558
-0.47273665269527204
-0.4487704903681032
-0.4281436905695599
-0.5828398856416772
-0.5705202508042776
-0.7724138558927008
-0.7492825830699492
-0.4515302131628986
-0.6525869893518897
-0.7157305151425071
-0.6155393678149799
-0.39505577173025963
-0.5669092601194352
-0.7009353422195259
-0.6750303274158257
-0.4292243897171221
-0.48013930211769296
-0.6965171206421193
-0.5566185562986662
-0.4204818987873144
-0.626872097426176
-0.46850816071410306
-0.5834168299427884
-0.13694848831362724
-0.3022191401948321
-0.23751435100073023
-0.2732708408099463
-0.01972314030319011
-0.35313412250209414
-0.04233727384623386
-0.5432441310807173
-0.17422127964760892
-0.3730282465057182
-0.16762817435747757
-0.6564074541832084
-0.15043820396745955
-0.42160969475507853
-0.316513712283232
-0.3009970498528556
-0.6573607969661391
-0.2211412044343203
-0.49314763538375495
-0.5830528971717928
-0.37869823803473107
-0.40221497152329394
-0.5741028242586522
-0.7588014985546608
-0.573785618804516
-0.2960907244625765
-0.4025651222279813
-0.4917327563641691
-0.44781577816027235
-0.7237651799546536
-0.7839371838207164
-0.5770077135547105
-0.3217828321073255
-0.5263403170902899
-0.5850738246505718
-0.5085918360940388
-0.7409032552431047
-0.7303178641929099
-0.47556958045502634
-0.6570335063699452
-0.7149169695232835
-0.5905508287224427
-0.4938854737638377
-0.5794595175464218
-0.7068844220808955
-0.6827826831351923
-0.4464054084824625
-0.5126699481461509
-0.6972952658418077
-0.46932060657083113
-0.4626615550288544
-0.5350683483604143
-0.49065323223581814
-0.5853506286052756
-0.2138579567518493
-0.46590440914866577
-0.42622641093086505
-0.11134690602195464
-0.5235701817494903
-0.2063860114981814
-0.3704298992038672
-0.11060184325577628
-0.17638916108744276
-0.6539292975754357
-0.32216009248632305
-0.7009921525940112
-0.1023082467745451
-0.3477874013300173
-0.2447138183869139
-0.3974377949137404
-0.6974058901953704
-0.18988273620801988
-0.31548522172417215
-0.42061817292835957
-0.22172184997179864
-0.41467642143116373
-0.24553605362454403
-0.34702173410089193
-0.5396091583336388
-0.4734641150044963
-0.35857791360239194
-0.45988489044692044
-0.4923586848615458
-0.6457403483782933
-0.6053829121059873
-0.3674405950333066
-0.247143365399679
-0.5655873869548017
-0.5188454740638894
-0.6471062529415336
-0.6778634564923091
-0.6047641423555796
-0.31541236839948933
-0.5991037623745646
-0.5928626810673442
-0.5861833628505427
-0.7479563541487707
-0.6531841849255128
-0.5396260579232777
-0.6484052076909419
-0.7930819469193225
-0.6290486771566743
-0.5519252702041902
-0.5572154425595762
-0.7879255174937007
-0.6513663525039294
-0.4348124136961762
-0.49983272979435517
-0.6459868896577712
-0.3785312269942833
-0.5203424946679603
-0.44644065014942497
-0.5816749535252814
-0.6092162572965513
-0.46690293578865033
-0.5859233333333336
-0.6200494445855566
-0.34972599383237396
-0.4283896481784868
-0.6845511308767477
-0.4840162740797875
-0.7070264252435409
-0.23401057475996376
-0.43755565740293806
-0.37229141127931215
-0.38893387605710933
-0.2330167435547071
-0.5648977501389308
-0.6695098390512494
-0.5471539739765697
-0.6526062901861249
-0.3378050640646357
-0.31826891013811404
-0.4211452671423419
-0.11691777777777812
-0.507903317617896
-0.3414001899656862
-0.3322132624713428
-0.40933727729850305
-0.28865663787994394
-0.21119301199483065
-0.2776280149871689
-0.3283508446075059
-0.4415244509357224
-0.4005833841592566
-0.3625761351937531
-0.38049146564756514
-0.5344324811570708
-0.4803389436058047
-0.5225197473109997
-0.4803265692503194
-0.47544920585428346
-0.2616874232250397
-0.6246437097521885
-0.5845536773914813
-0.6475038457488096
-0.6421977379202626
-0.5449202188338282
-0.45903726939373174
-0.5820918724345797
-0.7080800000000006
-0.6293068238763483
-0.7956248161036181
-0.7099097964556621
-0.5876575578116184
-0.7529679845754434
-0.8446462301291965
-0.5802871301915234
-0.5061169315127274
-0.6137271323342651
-0.8103637121275726
-0.5015861452461418
-0.4331481776298787
-0.5357605167301996
-0.49824802432344334
-0.3939616023377532
-0.6188560016941977
-0.4186720341486702
-0.7191885811096999
-0.6901914593908633
-0.6347074625349257
-0.6395088494077832
-0.7534492131614375
-0.6856800979957739
-0.6542408259212198
-0.7696039640668354
-0.7293813215707755
-0.5512706345177656
-0.6270064844653538
-0.6600397151799038
-0.4149168189509309
-0.49698102349096435
-0.509164158596815
-0.48821
-0.5882767741935484
-0.48989530268393866
-0.6079452371553814
-0.6969322822824148
-0.7784022680529842
-0.5763657012271083
-0.5154413939139331
-0.7421823262907098
-0.6722970525480693
-0.7192431036929195
-0.560132296045942
-0.5035873758775159
-0.4530788199332571
-0.5378186264531294
-0.24442613299449464
-0.47384785280126396
-0.38575251238999714
-0.5780507722164748
-0.6114668431365939
-0.5213984214786959
-0.5427310251434713
-0.5381601040799447
-0.4522834689727178
-0.38929567557625516
-0.2947038964226604
-0.10839058026260064
-0.4614877946058033
-0.43981892688454294
-0.42143288827926995
-0.30830245727506617
-0.18240354437537387
-0.25033772916635305
-0.3343534159667403
-0.45717418649067726
-0.3994831408901643
-0.26709417408685376
-0.34960860608093713
-0.47283932898912645
-0.6030226983103175
-0.527862040465014
-0.5211099424476023
-0.41262664468730903
-0.5180075851552141
-0.4256126973061409
-0.7793215471453171
-0.5891743626287534
-0.6570270938038937
-0.7107790780204067
-0.5682218238938881
-0.5762644509338505
-0.6755279147442171
-0.817840964467005
-0.5968524532836654
-0.7319752579892717
-0.8045171231542411
-0.6707004204802239
-0.8215398069758634
-0.6911393986609915
-0.5380651898298029
-0.5876341467675411
-0.7267081599102959
-0.6322439856550128
-0.4335178974796838
-0.5894178655049572
-0.6601834002627288
-0.4078381448984985
-0.572589079145777
-0.7368657603570706
-0.5163248479019743
-0.8155768581453698
-0.7841457805749524
-0.6968766610265086
-0.8127221467757777
-0.7403985210754817
-0.6582076146283368
-0.8198268711530016
-0.6188896565917815
-0.6813782114500232
-0.7108258710692347
-0.5670790982322726
-0.6551402537713188
-0.6208522664763462
-0.6632702795425667
-0.6490706293831945
-0.5436773695319819
-0.4799372250423012
-0.7292381506500972
-0.6922223993872193
-0.8149292771276087
-0.5640413819710063
-0.6422561861710774
-0.5501595562581282
-0.6940394635937485
-0.6594097385582797
-0.4514927702548884
-0.4824033682114995
-0.4282613123955908
-0.7086366142748317
-0.47519972910243696
-0.45133615716722614
-0.428968398983483
-0.17486033398507192
-0.34825112668070096
-0.3577846316245017
-0.5751564627467736
-0.6247890999970612
-0.41596371713952546
-0.5510835504257315
-0.5820746303804011
-0.4505950823809554
-0.2874338871317245
-0.18875315357592634
-0.1750099138783006
-0.502202641912053
-0.5008949111590736
-0.39640364680290224
-0.20226438072427866
-0.2168662896905387
-0.3710031880938906
-0.4500768111324461
-0.5272365532196658
-0.333862371601878
-0.3131791756574493
-0.439485711634749
-0.5781598221092759
-0.7208587422447837
-0.5721050821881003
-0.5694945385659617
-0.4909374065881758
-0.5075401336318422
-0.5550205160636998
-0.8660703174275722
-0.6764193604294436
-0.6215372156238002
-0.6818464429027812
-0.6398362389195035
-0.589301492713933
-0.8010174837876191
-0.761773875476493
-0.6775698226467756
-0.6166479534574605
-0.6912674290808739
-0.7257659195105753
-0.6717590337990745
-0.5293258818709462
-0.6646167253508257
-0.7699401299908426
-0.7384407648707292
-0.47618441721297694
-0.560595842752111
-0.8018704307043847
-0.7538978927263073
-0.45927862742319275
-0.7520191629328786
-0.8185303065700734
-0.629847417361005
-0.8301392392903099
-0.7881159071588439
-0.6966275349428203
-0.7247180966949854
-0.7412324261482478
-0.5489013793733623
-0.5506304655817791
-0.744255775533766
-0.6706650828167757
-0.6230187870256297
-0.4962591298886449
-0.7362153266687943
-0.7357028418798746
-0.6745874587039389
-0.5165301421362798
-0.719595339310573
-0.8228912468810717
-0.6875819237658948
-0.5213377576556005
-0.5079231639135959
-0.7222504671942759
-0.5683671292057876
-0.7076061388975637
-0.5175138774753739
-0.5199671956518476
-0.5244757292107868
-0.4502452860469342
-0.5305887527198382
-0.6240661329343609
-0.3621792364370478
-0.4959477307669188
-0.33507674484118705
-0.49508643278117165
-0.6339740590934752
-0.34722088027332626
-0.3144396775488125
-0.25839722480998134
-0.18463875472725746
-0.21878237827592265
-0.2255227057160871
-0.4790972200473694
-0.6451844523808371
-0.43070910319058403
-0.5926098262050195
-0.5547894891623492
-0.3746636628102333
-0.19932915522327113
-0.19121656341743784
-0.26519738246505703
-0.5339790551112795
-0.5271787210890794
-0.3244908082024649
-0.2284885246125353
-0.3423112074573798
-0.5184009431390376
-0.5693229422346056
-0.4799466547483255
-0.35277702612300366
-0.43907639465326825
-0.5603855659924357
-0.6282771198644641
-0.7445372491060221
-0.6163079216238995
-0.5957455145837401
-0.5216346145566438
-0.4866694934348712
-0.5304853449574584
-0.7815086944718148
-0.7419691867458691
-0.6428432814741023
-0.5750837276699312
-0.5642385115496592
-0.5617879943022777
-0.7983194637804892
-0.6066984433164122
-0.797206484389276
-0.640004235084417
-0.5271765666265563
-0.6340981161621712
-0.5304707589394653
-0.5644175136953907
-0.8318712568896155
-0.8532833870889802
-0.6563267180319298
-0.4931165335066234
-0.711754333992385
-0.8958143703934525
-0.7284074002132792
-0.5196002804752339
-0.7930475810323095
-0.7876217904312242
-0.6213099815837878
-0.7721724149407564
-0.744205921188813
-0.6446027975183296
-0.5197903234533848
-0.6756345347188529
-0.5647487877187166
-0.6226513104014686
-0.4991383240714506
-0.5388882182284279
-0.7311026631864123
-0.7756471478735222
-0.5870628208386277
-0.43680648378795056
-0.635362574160363
-0.883668774028035
-0.8529589910897576
-0.4894794317898778
-0.7173815721140797
-0.9254751495322678
-0.7090887155384732
-0.5572579533097998
-0.5468263451776652
-0.6007041931385014
-0.424543552743642
-0.5173240434966838
-0.5206833867639192
-0.49811088420964245
-0.5608831927302087
-0.2856604324239665
-0.3381745498204091
-0.368809306403908
-0.5753383720371122
-0.4003640210680383
-0.4626960842862659
-0.3709750463630816
-0.5710590668543217
-0.5180759744680722
-0.2509078914723429
-0.15668006874333884
-0.14059492956541186
-0.22850925962283078
-0.14238177232653723
-0.11811439161887712
-0.41331411566179993
-0.6099322804154655
-0.5301527541594828
-0.6145891358748405
-0.5673737603378056
-0.2828595717047788
-0.18827468930147073
-0.26851379099919453
-0.40941252435408776
-0.6352407548262045
-0.48248665532596524
-0.28860376517561637
-0.3282333860745805
-0.5166313707851221
-0.5784999210377889
-0.5849935728492177
-0.38343349855345993
-0.3735748577127014
-0.5560353379380202
-0.619733001175737
-0.5755296712440101
-0.6517364374662727
-0.5970191664567664
-0.6261899805568639
-0.4932585454497514
-0.41899189307419976
-0.42585419163579014
-0.6834979366906957
-0.7003204443567713
-0.6860568719414638
-0.5786454873074951
-0.45864384459560253
-0.522008593613938
-0.7700824881905722
-0.5108882825719122
-0.7888013122058823
-0.7505531400112878
-0.5391770802185257
-0.5493646463147981
-0.5585944338083094
-0.6785437843549894
-0.8332142816877944
-0.8382172402644604
-0.5889324895068997
-0.5232505930868943
-0.700580744090626
-0.8442474250471022
-0.635375857106922
-0.481885520940673
-0.7226545352398829
-0.6525494373458728
-0.5854301663108233
-0.621251310148845
-0.6119202249639267
-0.5661966666666671
-0.4106512655913443
-0.5505236437104469
-0.6301500358511132
-0.7033599332652263
-0.5097803680203046
-0.5436552227862377
-0.4604617375529881
-0.7113072210849013
-0.882423134042142
-0.6946160578637047
-0.5971362685302829
-0.5916138939040588
-0.8941345922459939
-0.9463479662106522
-0.6907494811054703
-0.6992733599183866
-0.9310981569306823
-0.6808880355445988
-0.7207939523406647
-0.5951366666666664
-0.3545538931234851
-0.37709013744249753
-0.4198342488984272
-0.5385304803912382
-0.5410810641545573
-0.5842948163601731
-0.0962869799112749
-0.18214751572259902
-0.3414944839757172
-0.5315762080939864
-0.5039176485201708
-0.5038484742721192
-0.46503153232498556
-0.6089414085411047
-0.49431923055202626
-0.1444515447328353
-0.06861525399064572
-0.17526173893286653
-0.3464933078181181
-0.17569796633624735
-0.12324882920718006
-0.3404940336751461
-0.6283605181420296
-0.6206864883718274
-0.6853788804286517
-0.5744129684368917
-0.2540391070585048
-0.24142202344166017
-0.41021386375421726
-0.5308400000000005
-0.7111310226539259
-0.37429879210399464
-0.293261618117259
-0.43655504377604615
-0.6194148079473938
-0.5094410145699316
-0.44138930107343616
-0.3277903081714608
-0.3836073458920113
-0.6230342114923064
-0.5523783868668825
-0.47426710904162134
-0.6334537573257643
-0.5124632792222455
-0.6370897064781986
-0.521684280672032
-0.3737826465824175
-0.39433467778561987
-0.6697405391572663
-0.7105986622425106
-0.6180551927302012
-0.6867254229814495
-0.4753696766906685
-0.502414932198496
-0.782608022255013
-0.50692
-0.7389906069168855
-0.7064999438532559
-0.6452405490158363
-0.5701535307388611
-0.5662779478406239
-0.6555955229548774
-0.707790888131674
-0.7967026396600083
-0.6049185572771146
-0.500925692343812
-0.5743677600315563
-0.7236724821077085
-0.6673599745870393
-0.4450441583068357
-0.590422001627905
-0.6642368996188056
-0.5350147227503709
-0.5721533672172808
-0.5055428807106599
-0.40391633206268546
-0.4988951667557016
-0.5175270242644939
-0.6697044399731031
-0.7452773371576101
-0.5414454426818415
-0.5280154924889855
-0.6471579384098781
-0.6914684376850233
-0.8831742791610142
-0.7413413411679209
-0.7038613615308486
-0.7680222139553865
-0.8141609668733273
-0.9500776694991194
-0.8348563339331827
-0.7977065835158826
-0.7982370008621479
-0.6535307027347389
-0.8189864144183083
-0.6156716137229987
-0.15285839538304263
-0.29099116789993046
-0.5111838138719201
-0.5590201030206826
-0.5834006402493249
-0.6197335893897032
-0.15090995409306276
-0.10970108286179782
-0.2983867689374194
-0.5849020522219847
-0.5726429415635365
-0.5224361820816605
-0.5524679006818919
-0.6588619742559397
-0.4914957194338112
-0.16061009388288652
-0.16182548713742018
-0.3127001526768908
-0.47863009318085586
-0.29461237415402414
-0.25784546516188284
-0.3233965730140094
-0.6953648189474557
-0.698873023124647
-0.7872637793823919
-0.4859576751255154
-0.331310632786489
-0.32686677318725893
-0.5099029393463786
-0.5201334630569662
-0.5805554006897691
-0.338484590294211
-0.3420025403793463
-0.5061237069286105
-0.5634286092147037
-0.36590707050054044
-0.3363450453239654
-0.36014745082016586
-0.4331221309160345
-0.6185538945756304
-0.40450273196486997
-0.49230435403350187
-0.680937493057166
-0.5103962787107666
-0.5410623391459163
-0.6036204233773437
-0.40133814696893144
-0.44067542392312714
-0.6382794276521889
-0.7751775380164821
-0.5228150325731734
-0.669182403371726
-0.5301492005882397
-0.5039811062539101
-0.7756958178647544
-0.7397245196114709
-0.5312198357165273
-0.6604211695424564
-0.5046915356260444
-0.5514744130538837
-0.5028671162804574
-0.6276162707898325
-0.8120221860901752
-0.4782968733455328
-0.4915819938722321
-0.7174561505486078
-0.4739313854057909
-0.546934692048859
-0.49891244572512006
-0.24417268106734444
-0.5365709620958582
-0.6841030464661064
-0.6778590160540626
-0.7471390391793215
-0.5672499302781998
-0.4446134133777075
-0.7745473347014881
-0.8071875949635614
-0.8095679841086736
-0.7888289669486204
-0.6694478671788007
-0.867355112750123
-0.7951888427463776
-0.8377590938194038
-0.7948206084920565
-0.8079815748168927
-0.6260718000847108
-0.6123006829063468
-0.7560474572096915
-0.6003523125794155
-0.18043989000633395
-0.24722188513525523
-0.5717861620711068
-0.6576999809052974
-0.6120820889737417
-0.6372952160127773
-0.3090713570908456
-0.2477106765950771
-0.32786407555288055
-0.671964519067613
-0.6417201650281704
-0.5525016717423226
-0.6513094089981656
-0.7682208739951178
-0.5079092104383668
-0.37106918414158835
-0.30018146648636607
-0.44885291543131495
-0.5499793917444425
-0.4139405639879925
-0.39063981641531487
-0.44884634849247546
-0.6722217866193927
-0.7976379519733364
-0.7453990354290781
-0.4242007597959567
-0.4663406496226247
-0.42880832185480583
-0.519755357371526
-0.39742555273189245
-0.3706882848028554
-0.45615955891369353
-0.4463421201918594
-0.5256075086209607
-0.4250803566646942
-0.31898357029154134
-0.40188710949476675
-0.4551106000784681
-0.48493806870085665
-0.5379263161755484
-0.32236499401824575
-0.5936295030175199
-0.6210982910321493
-0.6047710339808424
-0.4031085778663505
-0.6165961286459823
-0.39774535555436047
-0.5013180207704017
-0.7640618744979627
-0.5503053413661031
-0.5030421356925495
-0.5510325722792081
-0.38712146171307876
-0.7874261557414589
-0.4862846012078202
-0.5516979217984145
-0.43083235094610733
-0.5637272338554932
-0.44071940560596556
-0.6927564101183147
-0.5067947034416009
-0.5424389752900884
-0.5454189742499589
-0.225588634759283
-0.5178311999595385
-0.7885695401502645
-0.71656905801121
-0.7475607396426532
-0.6558727652880888
-0.42139386498450754
-0.752568376539673
-0.8223016079211084
-0.7192421979756355
-0.8234168533938769
-0.6506479827534154
-0.7989069776667203
-0.7055573808079211
-0.6274647945785695
-0.7355196781956658
-0.6904836174123106
-0.5128195784257848
-0.5757183441942485
-0.6698305644314594
-0.5900528250741213
-0.2940343739676994
-0.3797896696885303
-0.6107975340216906
-0.7529342686571142
-0.6294633436174842
-0.6806237988674012
-0.44061351687138267
-0.37662841728925955
-0.536717692402357
-0.7472546389996909
-0.7364167158015059
-0.6079184925425373
-0.7441918629417815
-0.8341479661104464
-0.6192693452207009
-0.5329723943233056
-0.4252412247723043
-0.5599796653028514
-0.5632362498284545
-0.5032863498636596
-0.5108440150594121
-0.613493206453324
-0.5946393856453561
-0.8285865038534758
-0.5384153361770643
-0.5265521415636841
-0.6156595964279767
-0.5036834825411348
-0.5282705939677842
-0.2940287084038344
-0.3425383878979403
-0.6397530099540369
-0.5013873285640588
-0.5422274600499826
-0.3044469342948093
-0.406586387478848
-0.5658253082916058
-0.46362217818403567
-0.5100062145156165
-0.4132009336754685
-0.36813948349570574
-0.5670016518424398
-0.6367446175969098
-0.3870530723080669
-0.5204236177456422
-0.3721574928462002
-0.4625404947746148
-0.6420995389339794
-0.44242490811614493
-0.5245154458448092
-0.2446660943141756
-0.60780939217171
-0.4997927922191981
-0.45984992103063305
-0.5970802959571373
-0.5441226142897044
-0.6053135946116784
-0.28540426090639576
-0.6126353326542021
-0.7866472955558153
-0.6884418405185389
-0.6833209151335405
-0.7778621314428786
-0.43666668582313556
-0.77818118486827
-0.7277925481377295
-0.5758857174151916
-0.7146027276577732
-0.6141032227476675
-0.7685844772525278
-0.5648020849699021
-0.4650832474986639
-0.634269646798547
-0.6414938802170256
-0.48298831808932435
-0.5789236184658478
-0.5676757962888911
-0.5860614231257941
-0.4164959974587044
-0.49216751280357346
-0.760666298533891
-0.8268195945600282
-0.6124889960537966
-0.6730053514899178
-0.5216771363262718
-0.4769708521797735
-0.675023678221976
-0.8426922620693538
-0.8386777922231797
-0.6401503004516794
-0.7919968600601307
-0.8180006835049022
-0.7046971199936286
-0.6283708870048929
-0.5259587284956346
-0.6396399103711464
-0.4981759323998043
-0.5862789148305647
-0.5858737480916943
-0.7460154832956339
-0.5710083627153876
-0.7299648419050605
-0.3825095297151044
-0.7144371930087989
-0.6439309887272997
-0.5526523853706423
-0.5021157599217881
-0.29791463902989257
-0.5106397523902596
-0.6525683353646431
-0.4915059847284536
-0.544512844820625
-0.2528619199544548
-0.4459638071065983
-0.6176816719846069
-0.3956034046137599
-0.5409064781021246
-0.32459056978853346
-0.4248497922052348
-0.44565094436453534
-0.4345617057679394
-0.42873186179510564
-0.34734954796439027
-0.5041664425080137
-0.5015371773535834
-0.26915910940801313
-0.5573702698675816
-0.5342397380404319
-0.6618260755022461
-0.4053100000000009
-0.6777217558096154
-0.8439180632080613
-0.6744970370032276
-0.5490695425589779
-0.7544505668358719
-0.47370504794134205
-0.7624837328537205
-0.7323580572592312
-0.4915332156263617
-0.5508064605751981
-0.5613108725116476
-0.7038685486475861
-0.5639639174468463
-0.42322454214423616
-0.5748957642413987
-0.5931740407979578
-0.5110566839746041
-0.5556055622367407
-0.576088334743373
-0.6917566666666672
-0.5002020727902872
-0.5584053526373723
-0.8167817567636146
-0.913933925919867
-0.6690247844957207
-0.6133120031612262
-0.5385975871841618
-0.5604827853195413
-0.6998025921219821
-0.8074061156710929
-0.9136822386343934
-0.6831696521047644
-0.8013463329667357
-0.689538684284214
-0.7218404856699135
-0.6727620384792092
-0.5452126543869068
-0.6154383323909175
-0.38613176021302215
-0.6005839093697086
-0.5684895430352283
-0.7460469287043812
-0.618453943244388
-0.5450309990055
-0.4139911477721378
-0.730294709674709
-0.5659000542469674
-0.6095908388983617
-0.3745693036690902
-0.34568333333333356
-0.6125405498415664
-0.5382636060451785
-0.580139164958183
-0.4361307418803919
-0.26249119295571965
-0.5467078247163865
-0.4780953378445088
-0.5002385010084255
-0.2863813257094457
-0.3894779839051254
-0.4881027416766521
-0.3601142029018884
-0.5008476281236769
-0.40595744216724433
-0.6011483629441631
-0.5223584038353072
-0.6497538669034472
-0.8230579112911905
-0.7683583751612618
-0.5216707855623616
-0.6461310931120555
-0.5204207877325134
-0.6696729432354581
-0.7251427469535137
-0.5785529554943877
-0.47281026249295627
-0.545264576310907
-0.6208437171090467
-0.604976457727457
-0.471454706564261
-0.6097100758558297
-0.5764329191867946
-0.506785146867215
-0.6061126204385746
-0.6769211512650264
-0.8028598815566833
-0.46628457730367506
-0.6162351342413461
-0.7208465988127717
-0.8427056871123767
-0.8146593982535903
-0.622762973770308
-0.5300187564132611
-0.525324760055882
-0.6976717305753177
-0.6546294327878788
-0.8094846753395292
-0.7711513079603581
-0.6894058735084797
-0.5356485468244189
-0.7094917830710693
-0.6180188514971863
-0.510076452558018
-0.4531580183355309
-0.31990791613722985
-0.4498135853403808
-0.5643514094611356
-0.6484136632407761
-0.675858180515153
-0.40280183718123747
-0.5659886153770163
-0.6075787203272501
-0.616597013993434
-0.5329900685761709
-0.2369174030917058
-0.5757413005360917
-0.5981923679015213
-0.6243334431402938
-0.24338607085598415
-0.5789019853234113
-0.6164510197902721
-0.33183424751642393
-0.43230830033469564
-0.507547224673278
-0.49434823786273124
-0.486757894959763
-0.6228300332314078
-0.6850797904103471
-0.7918820994805694
-0.6614394985706693
-0.5907685636141013
-0.47805337254927244
-0.6064692687857245
-0.6397197398324862
-0.6996699547564007
-0.5099358328287874
-0.5123147014138584
-0.5987926859446765
-0.5988777214998234
-0.5402779414856088
-0.6141555555483895
-0.6231932563936211
-0.53902512918255
-0.7139419524043441
-0.682675697883543
-0.7530157560355781
-0.4498838708110003
-0.5622974632729357
-0.6455720433771698
-0.6440138157006019
-0.8425242612490016
-0.7241944416613516
-0.4655760181882557
-0.45784757743442767
-0.6459941027400471
-0.6043016406237866
-0.5921834713393787
-0.761717326905501
-0.49014213661831274
-0.5826414135573631
-0.6749364985116574
-0.5594105661036971
-0.4161847093538802
-0.2738880220245657
-0.2179456277292817
-0.5315560240182186
-0.639879562826767
-0.6764422261096912
-0.5302708613503138
-0.6563195640290512
-0.6277003702880255
-0.7000354062515569
-0.28038453879674347
-0.6368447911275925
-0.756586654859858
-0.4181266442836722
-0.7121641868160883
-0.5274722541489815
-0.5507023523006045
-0.43686599266779486
-0.551359308145173
-0.5977858880176722
-0.6915231605524341
-0.7999744742429705
-0.6055110039463187
-0.4416712737881534
-0.5411464184785806
-0.5796323644856648
-0.7263917967378819
-0.611210998968305
-0.48990301021033417
-0.574716145205517
-0.5981323872071819
-0.6324777043625583
-0.5453845495317521
-0.6364096995721105
-0.6502084253209401
-0.7267611196903969
-0.5521092751180274
-0.5958682656514375
-0.4950009224291953
-0.4766694840337114
-0.5943152416216115
-0.5733824506237896
-0.7284447136061111
-0.7820996916831796
-0.321066247352816
-0.4318528502457628
-0.5775967801829069
-0.6303736252512756
-0.5795531979505282
-0.6321435547488987
-0.5372136875391167
-0.7171094800117772
-0.6578632476380494
-0.5308468436474941
-0.25890572823107477
-0.37837345729282484
-0.6798066170640099
-0.6859767984292128
-0.7590064214181834
-0.7125570298162519
-0.7420610762599193
-0.5721522265025634
-0.7730525845343833
-0.683984281271207
-0.6782652313772658
-0.5070865256627181
-0.489559728870218
-0.545873622561387
-0.6219896831633772
-0.8345824901118065
-0.6362093984900573
-0.5248969683578544
-0.49858977993400044
-0.5490071311484092
-0.6958817851305916
-0.7408750317662012
-0.5449325506861712
-0.5196524684370109
-0.6218154594193946
-0.7326181399948822
-0.4911717478620361
-0.5590519902752882
-0.738618929474998
-0.6414291282539244
-0.4101956299476645
-0.4899568697123522
-0.47239726810673444
-0.4884939147183622
-0.5590167480415486
-0.5863740348003845
-0.6841496047352092
-0.766971526972552
-0.4278405677217962
-0.5596634510044426
-0.646372360569178
-0.7019445540906832
-0.6429775448383399
-0.7704684628999524
-0.7565001764834584
-0.6529709266306472
-0.5266707827159575
-0.6631312840487658
-0.7030950890994453
-0.8246097507927699
-0.7544787237120687
-0.717000306473201
-0.7183344865324208
-0.5806933333333335
-0.5671607904347197
-0.5236907421635378
-0.5985957242905223
-0.8072472058891136
-0.7104071869712357
-0.6305607783417936
-0.595504807217594
-0.5223170968219754
-0.6833128374709143
-0.8216793960659358
-0.6428169123252858
-0.5282959535063233
-0.5927806542148731
-0.8044923886568428
-0.5391166751269026
-0.4661571522106396
-0.7113103878593982
-0.5648928469212863
-0.40604419627749605
-0.48609
-0.6058929658792657
-0.6141094763736858
-0.5981437459284572
-0.7086721124414302
-0.7864841350228174
-0.6701323083439226
-0.6476757556111449
-0.7486495011226957
-0.7731150920304302
-0.8585385234393534
-0.68392961531433
-0.7015320372723423
-0.676402054214316
-0.7148599226764992
-0.668992140439932
-0.7368827969753734
-0.6147514116934256
-0.5904825839091221