<?xml version="1.0" encoding="UTF-8"?>
<VTKFile type="UnstructuredGrid" version="0.1" byte_order="LittleEndian">
<UnstructuredGrid>
<Piece NumberOfPoints="1536" NumberOfCells="6750">
<PointData>
<DataArray type="Float64" Name="f" Format="ascii">
-0.3569774850683038
-0.30428
-0.3463497799046346
-0.24313065616797894
-0.2760906417012834
-0.28027015402491673
-0.38491908637650646
-0.3763797135416667
-0.4041053485171205
-0.48025974480254346
-0.5356313329200248
-0.5041297106897907
-0.5899184071837468
-0.6882771999999999
-0.5568262470663597
-0.6342586214595934
-0.772956949783013
-0.5909121835967033
-0.2579300129953692
-0.4348660663360195
-0.4935498542579389
-0.30675807359104024
-0.2584457501549904
-0.47437614646836407
-0.38165145915085513
-0.4141481384902607
-0.31444169007238587
-0.436191155882075
-0.38163526278156706
-0.39399026227870776
-0.4670291193475526
-0.3870038836390427
-0.3979506161275916
-0.4755229925658027
-0.3542457158090522
-0.34517805589965994
-0.4124103570209033
-0.4809201766893986
-0.5882421658276918
-0.2713029993161325
-0.5228623082179235
-0.5855056105099841
-0.3363942012963462
-0.33411698388096717
-0.5185022727363277
-0.4623502574094778
-0.4187102018832914
-0.3525751164290143
-0.3891564627951636
-0.3722465783469198
-0.3379906191162527
-0.3537258328525707
-0.37292162597309425
-0.38556396636136725
-0.30983802705809643
-0.3206458389641471
-0.34289832789536673
-0.2812888057376356
-0.2792359737135772
-0.25130221959943405
-0.6008782900581701
-0.4544460157057241
-0.6097349225514158
-0.478141897563412
-0.7166962205870546
-0.7045133724039063
-0.3617346708440458
-0.5623403738183357
-0.6714983819269823
-0.6515045071359794
-0.41909789918020673
-0.4208099359371773
-0.5409803278194901
-0.47280731676049886
-0.5627928904319087
-0.31421284985441916
-0.5634215636745625
-0.43533301514028494
-0.4370507728416086
-0.4199268722444201
-0.27465069003351583
-0.3393136509726349
-0.39691356480651924
-0.3719944624486589
-0.2658765236005554
-0.3225952628711602
-0.3314524735548515
-0.2475831324574966
-0.31423021988014055
-0.3170741243553909
-0.6409410939237058
-0.4237833333333334
-0.6106526664186661
-0.7265774898593196
-0.7763532465277779
-0.773917485556301
-0.5562744248294768
-0.8098635063537406
-0.7335155172968107
-0.8235345835916507
-0.4698387520503839
-0.6079981838524305
-0.7034615521087306
-0.5970073587249298
-0.8101770666666662
-0.4955301400204923
-0.4223033333333336
-0.5667104644760089
-0.5106824318837849
-0.456275275764711
-0.8039241351518901
-0.4182463689318113
-0.3737183701804809
-0.4788854430763861
-0.5001755815632732
-0.3426906712546765
-0.28813349399919763
-0.40564934481708376
-0.5090185379936307
-0.2483015407986119
-0.32299951287835654
-0.4924462994317124
-0.22722265757387963
-0.43235778434395483
-0.28112720000000035
-0.36271675552800164
-0.5720318463636944
-0.43057600000000007
-0.5845357325314648
-0.6527023009795591
-0.7236237864583331
-0.892947836737448
-0.7368250151678749
-0.8026086955982644
-0.8523625216477554
-0.8487624020800849
-0.6022974329207457
-0.8456039505043421
-0.7398090058455583
-0.7364072252211148
-0.8640904000000001
-0.531562643823066
-0.636206831038614
-0.6896991596163846
-0.5809265857380906
-0.6809887297965692
-0.9012457904525729
-0.48247820664476376
-0.3711419999999999
-0.6231804999394709
-0.5085530374889226
-0.45899650715384693
-0.6396057055271785
-0.3806785141524945
-0.425403042154242
-0.6137006732819175
-0.4738897719470045
-0.208372326492653
-0.3705954652138343
-0.6132978612710734
-0.5216238269883421
-0.10748293802083331
-0.5643251671268701
-0.571116577403023
-0.10906278487290762
-0.5890233453539782
-0.1915150399999999
-0.3199669770613763
-0.5303030638807954
-0.5057191175862787
-0.5908295952001144
-0.5894851515726417
-0.6450369368940292
-0.8171248188330918
-0.6645679901413342
-0.6703732996520823
-0.7416698650495362
-0.989798794675213
-0.7241224411878853
-0.7389689702417847
-0.6956759353433154
-0.9411024342974382
-0.8017368004077223
-0.6171960422263553
-0.813590405330603
-0.745282060296883
-0.6640546030214871
-0.7612712480178557
-0.830585531913094
-0.5157589779899564
-0.616648145534244
-0.6911356880888634
-0.5473548969823377
-0.6112270795067848
-0.7683621488050375
-0.4022946690186819
-0.35120776193428394
-0.6495848471928923
-0.5786020087301386
-0.46034767411726446
-0.5380387939094938
-0.42264615713159076
-0.5735815332839578
-0.7054704894576852
-0.3883209807440655
-0.20557992109334325
-0.5827819355841318
-0.7517125366260246
-0.4285325175411232
-0.16475287242032052
-0.7576460771905998
-0.4744399634678747
-0.17155068373223584
-0.5460750866800567
-0.18485275610663396
-0.2564218802066336
-0.5839919635960327
-0.6425842002479845
-0.6561302088676422
-0.726684948129778
-0.5878775558125021
-0.6288618622845739
-0.5799346706399057
-0.5884073055255871
-0.6332140126015541
-0.9318020799752021
-0.5988438099632503
-0.609442818516223
-0.6119659342271668
-0.8361138022354416
-0.919492287394546
-0.6748029685149531
-0.6764902937193895
-0.6472681017468633
-0.694804087046922
-0.9349719030975275
-0.6796339026658408
-0.5615604740648897
-0.6953664559448511
-0.7583100992442035
-0.6016078369278106
-0.6628031699772682
-0.7597095104739554
-0.46661086524478707
-0.5499662527882788
-0.6714211189844232
-0.5695469928565552
-0.5646239786319481
-0.6332385900094643
-0.39734917803246184
-0.3376218888200042
-0.6261556024189847
-0.6565992969149067
-0.5173860523924728
-0.5281856067794638
-0.5333032756401453
-0.683770039677619
-0.6878996173638648
-0.42609943113317983
-0.3141467406209366
-0.7141569831237898
-0.7005464967059307
-0.44310296383564557
-0.3812949418273606
-0.724293023747432
-0.40497146597072065
-0.4004619076844112
-0.41913373485564104
-0.3307538243025409
-0.29943403010605424
-0.6669900389172819
-0.7080580000000001
-0.6634007981895964
-0.616912358019727
-0.6168778229166668
-0.7405425357581487
-0.8362461419714814
-0.6241877369272419
-0.5658493787529325
-0.5790625009299443
-0.55232940104982
-0.56882504
-0.5579325862163279
-0.6698655682287531
-0.875943606805814
-0.5977283106329151
-0.5779516453812771
-0.5629114244105918
-0.5686242190478729
-0.8643019645521935
-0.7409423827237046
-0.6620242467704447
-0.6093802950917323
-0.5740074904543794
-0.728972992208489
-0.774587046733322
-0.5120968921264722
-0.4984267166506073
-0.5474454223053306
-0.6959791054713519
-0.594361333003302
-0.6099833102293863
-0.6576570403999769
-0.41423574353436293
-0.5304470332968326
-0.6296936901526012
-0.5887254901231515
-0.5446962593373285
-0.6080405027283361
-0.4888255664645295
-0.32136800000000004
-0.6326204647246079
-0.676692144673297
-0.5441756030860371
-0.5321652891513426
-0.5496391043790245
-0.6676146026038432
-0.6723217080347689
-0.6141869369025517
-0.4370481006882014
-0.6650242070848716
-0.6200753369693754
-0.6346965899738577
-0.5852042864583334
-0.6019599900445413
-0.5195753384312211
-0.6008504965902047
-0.4248128862411094
-0.4853080800000002
-0.3879088654680719
-0.6714838752557505
-0.6556233333333329
-0.5694825887118435
-0.7476185051015075
-0.6046363466463517
-0.5392538758680551
-0.583946228557268
-0.5494219539160979
-0.6233432635280726
-0.8317823919078394
-0.7830749076255419
-0.6261641378332814
-0.5527406196559123
-0.5971119362704583
-0.5671918666666665
-0.6040429101271004
-0.577717311427981
-0.538127918647845
-0.5101944645766031
-0.6787417366861264
-0.7229688888888902
-0.5911888022085473
-0.567556366703108
-0.5260099825340211
-0.5936584147658782
-0.764206289705914
-0.522073640421575
-0.6266622188514352
-0.5999017554699383
-0.5765229287247773
-0.708648166956019
-0.5548846210329867
-0.4432736052098913
-0.4895381997957713
-0.4921937531916451
-0.5860412256745327
-0.6041194396225115
-0.5896653817234969
-0.6621384211632401
-0.3549340348027367
-0.6017226679319042
-0.6087451927928913
-0.5714234776224688
-0.5197136888888886
-0.5764786360047076
-0.5637552558788301
-0.3002433333333332
-0.7266822717933716
-0.6826328821864712
-0.5166495163298196
-0.4659618722876633
-0.47827413383381256
-0.6542826689519198
-0.7535618878041146
-0.7666731687070737
-0.4683747919895839
-0.6156212606681492
-0.6623126353296924
-0.7897587639235674
-0.6379363975694442
-0.5763489269148055
-0.6449382943650158
-0.6398953006819589
-0.48624059805265857
-0.5064106666666666
-0.38769762967555277
-0.6271442270995645
-0.5759456230626165
-0.48628389573416503
-0.6116958403800761
-0.5554718009919405
-0.48517644001380383
-0.6588506424368548
-0.5006460084728245
-0.4614245713323725
-0.6180352384258823
-0.3690725281653753
-0.3672985472781391
-0.43417029169493754
-0.29913
-0.28623007998016
-0.27829536280405903
-0.6206348030584835
-0.549416959149181
-0.4559934358505335
-0.8032417760656313
-0.5298833771835015
-0.5330972456394675
-0.45515897620234586
-0.5777290559888963
-0.47354856185162303
-0.5254849449992901
-0.6206144099535535
-0.7777652630528599
-0.6301360000000006
-0.6093324251206534
-0.514351961974766
-0.5514406165613989
-0.6218120270430759
-0.5096001700215003
-0.6210931448444148
-0.5686831003347804
-0.5095444914853099
-0.5384029686082711
-0.6437569117738241
-0.5764013333333332
-0.5874283400720816
-0.5682725806837711
-0.5845758481405176
-0.6690865989583332
-0.6113155724884778
-0.45498597285944964
-0.6642681968170886
-0.6438884625932674
-0.6707996836123159
-0.627453069444444
-0.4564007356119107
-0.5225857378511821
-0.45511597809464716
-0.5586199327768112
-0.5224719143360658
-0.5882466776193419
-0.6043073066666662
-0.6599566554524242
-0.276003867705513
-0.6441123331207342
-0.6361037558701418
-0.5811318211899547
-0.49709293333333276
-0.4970114742715441
-0.5027685302343822
-0.30591252531514757
-0.7978655177480504
-0.7046264063759531
-0.5602835846956266
-0.40463973630915456
-0.5063138177050782
-0.6870630582834347
-0.8224375444604558
-0.7237929147126573
-0.38586876330086256
-0.6286980255654998
-0.7210402916305019
-0.7583370691009
-0.5113246967590809
-0.5844205855631301
-0.625012589337357
-0.5473633810111512
-0.45801404903988185
-0.48200492159537084
-0.4131427425903935
-0.526099733760419
-0.5174199662959379
-0.45086264781834456
-0.5966152413225592
-0.5503323898430809
-0.4580530578104549
-0.7171897392178169
-0.5386731695053834
-0.4321515371420113
-0.671118739068815
-0.44121462899768643
-0.39458322916666666
-0.3228829135181122
-0.46545503666388566
-0.29977310291382503
-0.6268763930564167
-0.45170644953898237
-0.47453658979234054
-0.405655723988179
-0.7540728488753441
-0.5104920704918351
-0.44829746536478093
-0.49614204268867995
-0.36374211531308115
-0.5522102312787923
-0.3656681495820728
-0.509937121511364
-0.4782302719812333
-0.6138038590878279
-0.6045076713508309
-0.5394179999999998
-0.5868013633057015
-0.5564053021019203
-0.4955903811197307
-0.592678543872701
-0.5849379673893161
-0.631263082629763
-0.544870488084315
-0.5945099391795027
-0.670935231459506
-0.6087775528303058
-0.5620079010814907
-0.6362435381058039
-0.6512299442855999
-0.7546301435766711
-0.7043499343749997
-0.548835729493557
-0.5642692013446747
-0.7136582359762381
-0.7059113220913411
-0.7368526665840051
-0.5630318774158988
-0.492511722982311
-0.5506012045877248
-0.34604930013088
-0.5921247956030414
-0.504357435391252
-0.564354196045075
-0.6384078080000001
-0.585700028145381
-0.22739293996810772
-0.5385913551340872
-0.640498699420561
-0.5820622938008583
-0.5087958515257972
-0.47718700136391834
-0.34617997083447904
-0.392067207067576
-0.7140398199143495
-0.6907287825729344
-0.6097063428778905
-0.42587548492049526
-0.5781043734610999
-0.6789441156354618
-0.7656676893208688
-0.5272432273891502
-0.31833602830991764
-0.6040343651815361
-0.6868188506027413
-0.6171523172876996
-0.3609962126690367
-0.5412262771504909
-0.5697695479303634
-0.4663928079923698
-0.4658943374621603
-0.5478547574705519
-0.5727262856983077
-0.5167328704277743
-0.5125549462965052
-0.4861738247657195
-0.41977080116387483
-0.5969258606964459
-0.6266577613030813
-0.4901047184360361
-0.46178149592090095
-0.6853207429003111
-0.5992434981618104
-0.47967631777447783
-0.526512489150651
-0.5975875115892295
-0.46111177287172284
-0.4406473721529994
-0.34987532573941355
-0.4272387141164095
-0.3483499411035338
-0.6154452390989872
-0.42803914497158807
-0.4557101145726202
-0.45489763509403497
-0.3514466199628023
-0.599322282151961
-0.5578097550113855
-0.4117355366566458
-0.4866605992928649
-0.436756125639386
-0.3193826686227718
-0.4249911144464429
-0.5940399618155358
-0.46371400710984173
-0.5536030126667234
-0.5947133722395109
-0.47976555775986746
-0.5644942539780952
-0.5816195157016432
-0.6779457714854957
-0.5786936640437083
-0.5750917443686716
-0.6544398370617968
-0.6783989539565837
-0.6210157379789218
-0.7459134308985752
-0.7574188716668928
-0.621379471490815
-0.6604809729971749
-0.7187241123048714
-0.7001483839636293
-0.845718444708773
-0.6646147905117702
-0.5796905743750927
-0.5973936168629885
-0.6500155498705349
-0.7347800772556318
-0.6527440584148058
-0.528788101576044
-0.47842550952046575
-0.43538034717916846
-0.24974950705889384
-0.498701401092229
-0.444325517620505
-0.514262937413502
-0.5659145873031614
-0.5550724544128761
-0.29753744988621195
-0.35216613949805714
-0.5617596570924923
-0.5070133822515879
-0.4869743657367232
-0.4460701792061475
-0.278299773407275
-0.4635580822483986
-0.5110263965391119
-0.6081424549668575
-0.557070767199834
-0.45173981088444126
-0.5547487313508611
-0.5952574227319688
-0.6172958691727537
-0.373577917965731
-0.3177833790519225
-0.5133790243074355
-0.6109050827179945
-0.5069847836463613
-0.31795548370149
-0.5282064868742686
-0.5795506696582428
-0.47195147698194345
-0.5868038261430559
-0.6625111385410214
-0.7411994570008593
-0.5406949218158019
-0.5121966960589687
-0.5438937175681121
-0.4411446807408075
-0.4564437102635654
-0.5907000942644958
-0.6319316772696623
-0.5360944349160466
-0.473081495202827
-0.6409704
-0.6231219028841527
-0.571048220379445
-0.46601273589336917
-0.5151134481166519
-0.5221960487035712
-0.41814522359732753
-0.4187996378545415
-0.37220109369544835
-0.404713644555942
-0.405383037817731
-0.5230546666666672
-0.5128138307095008
-0.44903224953938853
-0.5063957648925529
-0.3659583789222462
-0.4741835761639512
-0.45031117358958467
-0.573245701448736
-0.5169774846408525
-0.4800334903713341
-0.521669272911584
-0.30694063349410394
-0.5316960452014768
-0.6241444247691471
-0.5389030145235374
-0.6503075416666667
-0.570925982373156
-0.4644501967255525
-0.6685631434180611
-0.5947567542461293
-0.7405927162491608
-0.6661665199421365
-0.612990756905697
-0.7316554114530917
-0.7351208722065642
-0.619875093333334
-0.782214393934474
-0.6969829212825611
-0.6852093213277564
-0.6647246666666663
-0.6659967848729085
-0.6495966877702011
-0.6934622372570636
-0.6199295251999817
-0.5209034699402723
-0.4801237735069224
-0.553248083868194
-0.595442693155933
-0.5056668792140405
-0.4344345355902774
-0.38998242069197714
-0.30560043490602024
-0.2672227516621063
-0.3552370897010684
-0.3714897206445096
-0.4150619003926435
-0.40446523216367125
-0.4982133960262018
-0.42643051145321115
-0.2709742146074656
-0.4285373458260881
-0.4136175971372202
-0.4201196266666673
-0.3571345102040193
-0.3306568870746594
-0.4364060330749356
-0.3722758187880722
-0.48765706573320305
-0.4475772047668242
-0.4479858669146522
-0.4457491902423989
-0.4923861337349837
-0.49591696542367797
-0.3568135626688658
-0.3128669539522998
-0.44901585343290934
-0.558087829674605
-0.5011751936351482
-0.3304230442923664
-0.5784403960997164
-0.6517787750285394
-0.49702710159700475
-0.7239129089452758
-0.7140379056537468
-0.8170397693853715
-0.49333888888888927
-0.5452821595464931
-0.5593240159104286
-0.46995714914689496
-0.41737361289016195
-0.7217567761934284
-0.5371365151202039
-0.6011565898344435
-0.5281676412414797
-0.42318011863016197
-0.5378206012524016
-0.5575329985534204
-0.5321894214332556
-0.3992927454714563
-0.41197384076596916
-0.4643032155404007
-0.39903775468262714
-0.37413236417729
-0.3953306026496614
-0.3600342614987087
-0.38091666666666707
-0.40077840000000003
-0.5563481560474233
-0.4945662096160716
-0.5204652209668114
-0.39915895895636494
-0.3871251988493199
-0.38584491910439933
-0.5370043559055114
-0.6053350737847221
-0.49469557582744267
-0.5706833461124335
-0.3565416765308745
-0.6233505350452057
-0.6115129450457055
-0.5820485565199417
-0.6675865734375
-0.5389948457042605
-0.5423225768031915
-0.7044388
-0.6291415079927183
-0.6562456552327695
-0.6374688269063854
-0.5620344
-0.7509674123910964
-0.676372365502515
-0.49956382400000027
-0.6217812545543407
-0.5962632627050275
-0.6523738028644055
-0.5271855555555546
-0.5144026854308742
-0.5090419877983484
-0.4729045935882669
-0.5439713270833336
-0.3743531098573298
-0.3311777819621113
-0.49784277038990593
-0.38043859344458925
-0.41798169026658427
-0.3307336313657403
-0.3132918903310023
-0.268791713115192
-0.36298191564598387
-0.29059852829135013
-0.34097876222344126
-0.35391245780808683
-0.3397371519999999
-0.38685140699914017
-0.4834105836263598
-0.31931411409136506
-0.3643334872795385
-0.3759358933251225
-0.39178306666666685
-0.3587381822690638
-0.3855192867733653
-0.35159
-0.38345247748194394
-0.43986928142771275
-0.38062969364105753
-0.44045549287042746
-0.3685098668311458
-0.46886968685263736
-0.5050641721734513
-0.3852935224936022
-0.28661336164672324
-0.49003241935160463
-0.5882846805478809
-0.5205212626846177
-0.35750317708333335
-0.6426221641196631
-0.6923379619761154
-0.5240929882207067
-0.7668014370439072
-0.7100204000000001
-0.8122658648481091
-0.40247133333333357
-0.549884790342483
-0.5316766890027806
-0.4482080251529445
-0.3438178324718686
-0.5638284620759685
-0.4765351093201069
-0.5453853357182438
-0.48201097094525913
-0.331245175561822
-0.3597280933250678
-0.5190988722876628
-0.4573865910387726
-0.33769531051260676
-0.324401566512054
-0.41886038747675064
-0.3191990382271203
-0.3289070693438077
-0.3042842691218724
-0.2890926887855301
-0.31052799999999997
-0.34612108906798916
-0.5218129893566453
-0.5246031965047089
-0.47651981540919525
-0.3911725969899827
-0.31116962084757166
-0.4027443721128887
-0.4999317267332679
-0.6063123038194439
-0.4774246296201638
-0.5389541397779225
-0.38940725928014414
-0.6461373337389599
-0.5205240787766071
-0.5390543091547837
-0.6075711556623262
-0.4915162297485994
-0.6275855833849961
-0.5524246666666656
-0.6374112456152399
-0.4974240295699291
-0.5355353234030383
-0.43250410666666644
-0.6863218142967772
-0.5280555713990494
-0.40886306785699494
-0.4137001704717205
-0.5449879760221847
-0.4525149958459907
-0.3422963167321083
-0.4614447814009112
-0.3741626119117505
-0.41514640998457847
-0.41423196874999957
-0.2693362294619257
-0.2596281660471522
-0.4730289141722786
-0.34467960464558806
-0.40522503657780545
-0.31772884089558767
-0.3093785309112633
-0.3182515953379545
-0.45279676402784647
-0.3298886588044541
-0.3955288440291624
-0.3922537132831538
-0.4105519466666669
-0.3921661890741777
-0.41892543782420916
-0.41355117753993315
-0.4301153990421433
-0.4570784956451644
-0.42469756208582937
-0.4549315846249229
-0.37206319078029165
-0.4431320839480168
-0.537280382705403
-0.4544088634169294
-0.4366364372039855
-0.44502665787915247
-0.567240601791653
-0.5288600690378976
-0.3873411112499659
-0.5889380887884307
-0.5904697874005239
-0.4961318324848385
-0.6123705063220868
-0.635993651253435
-0.6927510784394322
-0.3859749562581806
-0.5347879967135191
-0.4716690314588073
-0.3711140779169419
-0.2612508267211083
-0.35365134692011546
-0.49473390032683273
-0.5236409755383563
-0.37629520324994314
-0.22622223608228134
-0.2652383541227526
-0.5645012509767396
-0.3900524641470084
-0.21190130570000862
-0.25930585778368437
-0.4771734253734881
-0.20138794989859454
-0.18674217013888983
-0.15962485944571894
-0.3205920855994026
-0.30325335916511686
-0.3725807152304191
-0.5220058017160786
-0.5431315093392665
-0.39968198158092966
-0.32870515443906556
-0.2612614486422176
-0.4889320055796658
-0.475130648746209
-0.6129005103508317
-0.4587431218406917
-0.4605034752634846
-0.3916054261786002
-0.6328071456164377
-0.4196160732878695
-0.5303457801580814
-0.511599757904257
-0.503010595079651
-0.5227639408968783
-0.30945252572845755
-0.5001544419843622
-0.4432084891102892
-0.44635107130097557
-0.4069780502307642
-0.5775980773776094
-0.4806952136670179
-0.4203504594998966
-0.37974752680157237
-0.46798763739369437
-0.24832956811836102
-0.24785895019632156
-0.5445265342945503
-0.3926051272990281
-0.44359324449922366
-0.3339512624789042
-0.2871396826018389
-0.31951006938334886
-0.5067973597852068
-0.42873062849073534
-0.44505524699387194
-0.4149374362439298
-0.4009509756513825
-0.4107978030232395
-0.4591883942963423
-0.4329519680328844
-0.5348987680206977
-0.513737397522929
-0.4937906487125437
-0.4565651610713927
-0.47644395460686323
-0.5230382086230859
-0.634960728007067
-0.5154740495556928
-0.5019547351913254
-0.4616333753140171
-0.6075157859214145
-0.6333854644891583
-0.48580005365644136
-0.6097168388761123
-0.6074593875717936
-0.44753310176012295
-0.5916705434635113
-0.44960168704277775
-0.4584071240516234
-0.46443821071846797
-0.5849367373331531
-0.46984142483677555
-0.267496908866941
-0.17138261879490987
-0.25876318554606503
-0.5531902312061519
-0.6001278371215757
-0.31464039235545926
-0.10184127132364044
-0.23635798966728638
-0.5914069278283993
-0.4530976945814213
-0.1018945305039307
-0.12738241330853556
-0.5415221676224047
-0.22449451241246451
-0.044141132291666656
-0.15646841564359137
-0.3975368800194163
-0.3224256726596404
-0.45471199999999984
-0.5876517627299799
-0.6335865427570478
-0.3872284513375323
-0.277951970627539
-0.2336975796733585
-0.47757179375904085
-0.5062179534503067
-0.6515660097863895
-0.5487322862640783
-0.4092675603223804
-0.42437147817012905
-0.5875966015249625
-0.45052916656172565
-0.5895626165129273
-0.48403061979166634
-0.4934670963786693
-0.271718039060263
-0.21224548915065092
-0.28469035133272946
-0.4566307166328703
-0.45073055176689375
-0.5267675306468275
-0.542474844815149
-0.6097890049295939
-0.5019877439999997
-0.434767481341328
-0.3712069486031286
-0.23934758583075386
-0.3237463143211415
-0.6360360617482951
-0.44634339911827503
-0.4553783290155699
-0.3965931084248748
-0.42743834454492746
-0.41932129765209764
-0.49023080585021545
-0.4749023495738558
-0.5168992204225281
-0.5763076886415329
-0.5148890810577207
-0.459906658400496
-0.5341091292061443
-0.6535562515356955
-0.6660099632353784
-0.5193775948915066
-0.45047981658453745
-0.5595869128798886
-0.7491788374754909
-0.6478602931459677
-0.4766330010281467
-0.5113030549435787
-0.7419473055282936
-0.6010855578887985
-0.7063390550129506
-0.44368187303161827
-0.43945807173311696
-0.5418173333333336
-0.6527383545014372
-0.593383900068281
-0.2420280176573443
-0.10992284684513409
-0.27282337843213605
-0.5646052382723703
-0.6300264498725844
-0.40540470554622865
-0.05060330018281769
-0.1718548000000004
-0.5242004259144452
-0.508414826856635
-0.15854144612663781
-0.025974183942963417
-0.48491010560033043
-0.31750962171198877
-0.09874419676042602
-0.26225803362487415
-0.3975025866666671
-0.327716
-0.47627399999999986
-0.6497241498749667
-0.7328922072533852
-0.5113052775611103
-0.28709218381483675
-0.2492359397404704
-0.31244122928882506
-0.5368514530762395
-0.6741050442708345
-0.6917181475095456
-0.4530310983265748
-0.45561837038683967
-0.5470264474115806
-0.5988027575268632
-0.6236575763587525
-0.5097200529513889
-0.38122428797487795
-0.2022944275760072
-0.30422984645587997
-0.26828620994540847
-0.43304754846379007
-0.4739725990907213
-0.6149800800000004
-0.6397993344746468
-0.709188772060343
-0.5085677866666666
-0.4541715590165561
-0.4205776166048861
-0.39363537445894287
-0.43289879379844926
-0.5831740805951638
-0.4509286137501061
-0.5104926587410396
-0.5438177386393975
-0.5640346519117047
-0.43428601157263896
-0.42786610849272216
-0.486808807985413
-0.6022860533288447
-0.7119043595194512
-0.5764276064204453
-0.6943015496567612
-0.797829425019263
-0.5471191832775371
-0.4128046229858065
-0.7030937554749618
-0.7988006333574503
-0.48784262692562924
-0.6526640866294702
-0.7626834695341945
-0.6453593308245287
-0.5372944444444446
-0.6708030862215447
-0.6811535413967408
-0.339602784838088
-0.12136955694139588
-0.2833003451126266
-0.5355850960942344
-0.5754619224025975
-0.49699633966788076
-0.12577318676695495
-0.11381323199999997
-0.451368069849142
-0.48516460694485114
-0.2877967855902312
-0.09732866734495595
-0.4038768815871044
-0.39102218052148374
-0.2908315805513029
-0.38904970351540685
-0.3753239086993973
-0.32777666666666666
-0.38902387848729125
-0.6603521278442558
-0.745851891991394
-0.6513606776373936
-0.3391885584342758
-0.28718386710227517
-0.29203842018065346
-0.4889416717662445
-0.6648997540509266
-0.7126904414716807
-0.5579493177189184
-0.4532962637811408
-0.5646851915402572
-0.6334969320603429
-0.579004819866364
-0.5061025211395477
-0.4056207180089421
-0.3502523268154832
-0.42681516568475425
-0.4499329195481357
-0.520127413378947
-0.4596092923182908
-0.5528823999999996
-0.6620889330728446
-0.6302724901839216
-0.459480108319901
-0.5407399151414473
-0.5929954946936659
-0.5419121873757807
-0.42453333333333326
-0.5019741801458933
-0.5006196992976572
-0.6091830027629398
-0.6759408583685933
-0.606499656312646
-0.44242462677878963
-0.5028198029143253
-0.7245688330733967
-0.7773042838541667
-0.8485990142591442
-0.7015881015648571
-0.40080020830132584
-0.8541521333333328
-0.6723518603800186
-0.8438367699938
-0.47140085279327776
-0.6732405480213899
-0.6642455884423755
-0.4579106127749211
-0.17542194824911606
-0.26189343955362676
-0.49618487644111914
-0.5579523587871583
-0.5369798827842461
-0.26157935766573276
-0.13539677174622897
-0.4432890845747641
-0.4893127855450475
-0.42633141474860087
-0.2996490771333518
-0.4284905736637474
-0.4617669321906301
-0.49047432031249993
-0.4583657751048837
-0.4312535919726291
-0.36112898532754656
-0.4042666714197149
-0.6063460170269596
-0.7253950837757022
-0.6722372605254349
-0.4141839206170992
-0.3164191054794196
-0.4847208056849445
-0.5347710819814223
-0.6088388591957926
-0.6348102281313213
-0.5704501095102295
-0.45967441135642334
-0.5275524905274064
-0.523309129158917
-0.5006190592462717
-0.5884338207564835
-0.6252941641331357
-0.49658297120040523
-0.437262
-0.599717229587906
-0.737396241416764
-0.5273245677644708
-0.4713903582558386
-0.5457007365561237
-0.5669932230946629
-0.49832819474271534
-0.6894310462402085
-0.7151926117849517
-0.5903052612065222
-0.535541783716771
-0.5607763052399863
-0.706022438433918
-0.7365230026041667
-0.4629047624989961
-0.6139483477485607
-0.813998523868568
-0.86173536
-0.5510416998013897
-0.8850678648481092
-0.47211393986360844
-0.630711220394836
-0.6674437322837021
-0.5417736141869872
-0.2666725873064042
-0.2396331679317674
-0.4846475876201923
-0.5529130915349806
-0.613534810736891
-0.416430577586759
-0.2667978812564571
-0.4880361042217815
-0.5211885346663613
-0.5657272662153686
-0.49608853378797263
-0.5395407282900598
-0.4999396382439543
-0.592894947916667
-0.42430458188117076
-0.547462532359335
-0.45253691258524487
-0.5732058328166988
-0.5956188257142562
-0.661268175663833
-0.6538973102858097
-0.468951847737135
-0.3647328614548668
-0.6448743159311203
-0.7289199179499414
-0.6026384722720018
-0.5624769705135186
-0.5168274667493282
-0.4468840152516738
-0.4439675327530355
-0.4816836560413916
-0.5104239892329029
-0.7880711138180678
-0.7649070862221451
-0.5126012533581327
-0.6117797374133954
-0.8365685456299494
-0.6814627440515157
-0.5016283755321349
-0.5392165553173404
-0.6126598465153261
-0.5782526405042371
-0.7481468852992442
-0.6933686429891462
-0.5623433324643091
-0.6019609217530223
-0.7109756745048589
-0.518809991255929
-0.734346290679892
-0.784649422537127
-0.5518816683887858
-0.5836561783256277
-0.6668223756142099
-0.6349477428050982
-0.3738378594811371
-0.292191352133234
-0.4997580617958614
-0.561856944363255
-0.6751670317450569
-0.559401775351647
-0.41305200000000014
-0.5176380577714623
-0.5779460437839549
-0.6125006461692059
-0.5828059113453196
-0.5867458900777384
-0.5180633090885424
-0.5264340615124733
-0.3716551855446922
-0.5658634441610024
-0.4866688799338706
-0.693991433591731
-0.6784665962089522
-0.6137552786463464
-0.6715054417338991
-0.5154753125852451
-0.40592095781670595
-0.65553541020872
-0.8092451480908047
-0.7093270881328432
-0.5795187122993738
-0.5694911270054329
-0.424682801366643
-0.5131268244237478
-0.5782654223463077
-0.6284183468379273
-0.8407492371923447
-0.7050238947951294
-0.7082542168072345
-0.7202702012086557
-0.5832653318316458
-0.6598402457377512
-0.6225311043103964
-0.5906201626873386
-0.6474596373297682
-0.543125794053163
-0.6155606309154787
-0.6427220407973709
-0.5983776906115412
-0.6073127902804422
-0.6743554871004616
-0.7329516709595497
-0.45724623878725285
-0.3733909448233106
-0.509673837995016
-0.6204138848259579
-0.7129151594608524
-0.6361873185729562
-0.46390706666666676
-0.5124696761570638
-0.6406744201025543
-0.5858371952859097
-0.5439918295756981
-0.527333352905255
-0.5169978824133677
-0.40128799205107585
-0.34883626102762016
-0.45756016758351953
-0.4155115410852717
-0.7114000000000001
-0.6738884644119234
-0.6632441980209953
-0.7416038826980939
-0.6337216410464137
-0.4103525079222275
-0.7096256091512183
-0.7066610217722684
-0.6592500271895502
-0.7293069130647266
-0.5253290812036137
-0.6977508270974014
-0.6541203305603817
-0.6463567575995639
-0.6801410885416664
-0.6108656528208308
-0.582067554825151
-0.6762466471682443
-0.5644819543184071
-0.5644605599999999
-0.5629134941103534
-0.6332366666666661
-0.5816358495772765
-0.7286857120867595
-0.8146858828623862
-0.5548550316363864
-0.38393628642281463
-0.5446517234965905
-0.6076458931906609
-0.7447482638769111
-0.6632280278741297
-0.4770271912378589
-0.5237798171109733
-0.5953505675718632
-0.5588636825620662
-0.4895680300124647
-0.47981750258317796
-0.4427676461855297
-0.35083611121605257
-0.31263484188049123
-0.370631709560724
-0.32988
-0.5842066683200028
-0.6210990197748972
-0.7837804717555429
-0.796990271110502
-0.49487999856856474
-0.5701913281249994
-0.5961284945198423
-0.7707787383921736
-0.7083047329360292
-0.7143371639564574
-0.5620179374962077
-0.5581963763174206
-0.5512043999999998
-0.5533939211194089
-0.5561010746021905
-0.4953117027599258
-0.6604958055961064
-0.8132890612726587
-0.6875472767660185
-0.4291462491238328