<?xml version="1.0" encoding="UTF-8"?>
<VTKFile type="UnstructuredGrid" version="0.1" byte_order="LittleEndian">
<UnstructuredGrid>
<Piece NumberOfPoints="1536" NumberOfCells="6750">
<PointData>
<DataArray type="Float64" Name="f" Format="ascii">
-0.2325861032922068
-0.31891
-0.18972049788825004
-0.4373795571124481
-0.3027657982515965
-0.4398361115044593
-0.23168944520303117
-0.34394175781249997
-0.45907671883745754
-0.3627183181399718
-0.44187214817110976
-0.48091747911762445
-0.5047571281625228
-0.5897096
-0.5037131838386342
-0.5669797839543599
-0.7093661810291382
-0.5390899796415624
-0.34812797697736336
-0.3294309454432726
-0.2956230983893784
-0.3295865549623506
-0.538836840256251
-0.3140718312164718
-0.33504041117059313
-0.42038034640053196
-0.5850801584508681
-0.36114543902528945
-0.520807639677619
-0.5970835443171146
-0.3827630114694091
-0.5201799075865945
-0.5534312053539338
-0.4031990783089106
-0.47751502120272765
-0.43696894721309487
-0.3911718274878435
-0.4893140452572846
-0.46155923105547375
-0.5517695505657684
-0.39748258567254324
-0.45256566643983126
-0.5598465098943586
-0.594129190948543
-0.3808127257830998
-0.5144600977017946
-0.3936277717745043
-0.5676993499070057
-0.525159031306762
-0.6272327521885793
-0.41383658957037395
-0.5459805054695478
-0.45219267771357846
-0.6458719882804428
-0.40611557301481754
-0.37636496353807475
-0.6121695715030812
-0.3608276114647207
-0.5353963662740238
-0.4693246671514651
-0.4650351615154485
-0.5777731907418888
-0.5316281271793334
-0.5910482025688836
-0.5031635762237451
-0.4875287278546272
-0.6831896581925733
-0.6130229152511416
-0.5108820812776309
-0.5067098002173388
-0.6844949956143153
-0.6230285740855549
-0.5469136145031382
-0.5326221200455473
-0.5346817179582554
-0.523589877508437
-0.5352233875323541
-0.46873351412837233
-0.6483958579781279
-0.5523615642667156
-0.46480155957373187
-0.4223409875573108
-0.5790445574100859
-0.5279323823523704
-0.4117023566109837
-0.5111912829877104
-0.5167375399500614
-0.4974176293823875
-0.5119968269477159
-0.5088623400271124
-0.4945157877702569
-0.5080366666666674
-0.4756709207018419
-0.54847363182218
-0.42210879774305593
-0.5849266889130683
-0.6970888075433805
-0.6515322054879782
-0.5829723877663221
-0.39956954019425556
-0.7118476972407396
-0.716438048701635
-0.6342841436891109
-0.5979613700841252
-0.408190133333334
-0.6456816684054054
-0.669793333333333
-0.6583308652348768
-0.5903681035769813
-0.5387446865805069
-0.43417504236412535
-0.44063830769847895
-0.5315850395889873
-0.5788371992608652
-0.5930461338319185
-0.5006956736313474
-0.4672070497323961
-0.538562270598645
-0.5617777899393174
-0.38415228732638923
-0.5545668144330506
-0.5748916927334684
-0.3498086019838817
-0.6311024733879299
-0.4071273333333337
-0.492389766480678
-0.4782416019454265
-0.363008
-0.36990553871907744
-0.5461969827834919
-0.3613824895833333
-0.5266414921898647
-0.5693745746267657
-0.3357690892746436
-0.6247038412513016
-0.6379341278261059
-0.6594169425620715
-0.713297249986383
-0.6763251719008762
-0.5351917614482739
-0.32098136000000005
-0.7023629736637248
-0.6400084423365229
-0.6996762555339742
-0.6615110294169427
-0.4459803767733768
-0.3299167637941723
-0.5454505762632137
-0.661918
-0.6004338511851769
-0.6195316240506906
-0.5593497582447854
-0.36396125006788044
-0.434057566488323
-0.5459860343846437
-0.5589417538536919
-0.43123114359336445
-0.4983674615909231
-0.5211361208312618
-0.5780721321094314
-0.40545249384211
-0.3564787447916667
-0.6642045175844448
-0.485998938750767
-0.30107623310601367
-0.6134841737234683
-0.34176495999999995
-0.4154389535027898
-0.4341989062764799
-0.3418308545153961
-0.36314577016665534
-0.4747405552941402
-0.37332167364797547
-0.5081148222773298
-0.4869129180385811
-0.36049780211752097
-0.6156712965236631
-0.5381275723696708
-0.43859513564516334
-0.3329727422194671
-0.6733614805562914
-0.6378391651675699
-0.5562475382557018
-0.6123388420472555
-0.6088646226764923
-0.6842228771096633
-0.6320182261838009
-0.36039578522661064
-0.30458622969538557
-0.6615250120486905
-0.5173586008091804
-0.6050388983108062
-0.6272289674507667
-0.50546215106427
-0.31605703136118507
-0.48158748976348403
-0.5852138034717913
-0.4472126680595205
-0.5245645929659534
-0.5242982907339068
-0.388597133437758
-0.45338291268103065
-0.48865236263544726
-0.4257251023078492
-0.34030661602973383
-0.5029644701746028
-0.5442611075812714
-0.4955968442653447
-0.3125365455999382
-0.4141338606367215
-0.6258009901869767
-0.38802379429516226
-0.35127573665840467
-0.48886759467665625
-0.307669078652614
-0.2960747770420813
-0.4511080141396808
-0.4546029716883647
-0.4458816675891087
-0.5255809716883653
-0.4618013192993817
-0.4125333043640645
-0.4632753894769011
-0.396102723979659
-0.5760985706736386
-0.4679416160363712
-0.4315499903831695
-0.3752113641248192
-0.5973545011317545
-0.567155932238362
-0.4510714177174571
-0.3770010470474449
-0.32978776005159055
-0.5384307414876184
-0.632342909120288
-0.5144661181899816
-0.4952451611903284
-0.6296514471998351
-0.4969808558627679
-0.5353693920469277
-0.5840995851223405
-0.4329197492622439
-0.34785007600423407
-0.6256853842279914
-0.4821027237505097
-0.47274142407258585
-0.4497421721221743
-0.48836711122132703
-0.37636046942650664
-0.5012968997370363
-0.5270035771853693
-0.3692101548270988
-0.4111602925474298
-0.39256565189231624
-0.4325165495495566
-0.42816608987481786
-0.4267136402149205
-0.35945429242373117
-0.3864904976355881
-0.4888027458036816
-0.5294834918658547
-0.44309383083281645
-0.35991971449964927
-0.44100703419509246
-0.5419477471376846
-0.3738422606213347
-0.3874809074614234
-0.38055708105587766
-0.30599815990907203
-0.26440398667086357
-0.5167113430325966
-0.49954
-0.40682286676173357
-0.5308588414809546
-0.32890892447916675
-0.5355661174227359
-0.4427060973341597
-0.5454614014459268
-0.5294734811522962
-0.32853078611283326
-0.5226546403460083
-0.3457686400000001
-0.5471076911539826
-0.505970155063156
-0.35273718261348774
-0.4904314856993401
-0.3248976391816491
-0.49859562882815583
-0.555502213552161
-0.39440833209202814
-0.4016427553902319
-0.44881374467288987
-0.41958883170792655
-0.5125627332251633
-0.42720007907306184
-0.41869373365284807
-0.5576201270923746
-0.706053728992125
-0.5083038126601487
-0.40821104993283686
-0.36979133026285754
-0.43789267657780523
-0.4003970706198157
-0.6475477359374749
-0.5664700607772185
-0.44931603390744485
-0.3262045599111812
-0.34281614270165944
-0.4261415935830583
-0.5618673815940768
-0.4573780000000002
-0.43806911654877817
-0.41765323122671555
-0.3161067740717771
-0.4058123394151352
-0.4168672952573588
-0.4563019965778052
-0.43212710695709494
-0.4649298119057264
-0.40246218649637294
-0.5283629128412245
-0.49353315285696014
-0.4377589447895596
-0.3627662786458333
-0.5294723916003921
-0.4137163296365534
-0.3649555418474892
-0.37672119735131876
-0.36174712
-0.3722875213887166
-0.5057044572302477
-0.41607333333333285
-0.2928183594767186
-0.5176374978594698
-0.4670953499792477
-0.2456702647569444
-0.4650081668979295
-0.30359134221946704
-0.5587021576161213
-0.42566384338726193
-0.3020425162223598
-0.48189957231351904
-0.5952160978853348
-0.5166000187064079
-0.37585066666666717
-0.5448432766139674
-0.40455482331060205
-0.5869233288716648
-0.5334397061806898
-0.33868664640209434
-0.35960444444444395
-0.5186932292478745
-0.5223019790516328
-0.5082573113966878
-0.37713170490631603
-0.3362839979746626
-0.4758685625129156
-0.48223253774902436
-0.4353541748860874
-0.34699696056272944
-0.3186830107060184
-0.4700410383534253
-0.7064730485223073
-0.7994504526924217
-0.6302236949589836
-0.45582319895316686
-0.24814356340841756
-0.3412573051622232
-0.42167688446788204
-0.6452625513464368
-0.6775578030682774
-0.5391896152428667
-0.4053121285553533
-0.2456788444444443
-0.42480359457815037
-0.5493913630249417
-0.3895499999999998
-0.5482432773579794
-0.5149921771810947
-0.39274422966728634
-0.3636632224288765
-0.45494495963989584
-0.5369508383641931
-0.5245944324921693
-0.4482773362908799
-0.31080041478082926
-0.5611115285108569
-0.5440083005083932
-0.43505162093536803
-0.2700716666666665
-0.5481092347993644
-0.43943983602703257
-0.3476812130605498
-0.43100642089197433
-0.46036466666666703
-0.5282848956395956
-0.4399208804706496
-0.3537723248605086
-0.284936025753998
-0.3942228237014542
-0.3444383292002479
-0.342305530244241
-0.35472434737066644
-0.4107772101673904
-0.4523158427756684
-0.40384387056073523
-0.4820968144702841
-0.5278901607958314
-0.5069477305056571
-0.39838
-0.4052296310992621
-0.49240943063219483
-0.4638653639181651
-0.3539821897104114
-0.324902242066951
-0.4355931736788187
-0.48835812686530927
-0.3488577604454602
-0.4539038968710634
-0.4456575362356608
-0.5703251027898312
-0.5570403968970102
-0.5331430570232497
-0.31467730863650456
-0.3775139999999991
-0.39074922018385466
-0.6160907946915234
-0.6317925468280747
-0.5446909840880138
-0.6212788094689917
-0.5838057497637593
-0.6359219037073772
-0.6161176099040406
-0.4462846500064382
-0.36825088362576625
-0.48306933333333296
-0.5969290014388929
-0.5228850555408898
-0.43947729478639164
-0.34561372135416596
-0.46093226945253835
-0.6152974222756392
-0.45132101455032897
-0.42273242417138396
-0.28504681628435596
-0.45121543663194424
-0.6047052917514969
-0.8003204271753822
-0.8121451483777639
-0.7029731693744755
-0.5936446293597674
-0.3834232738169041
-0.28936981333333295
-0.4648485629072478
-0.5755419470794501
-0.680297871031311
-0.6037776890367131
-0.5637890616784277
-0.33397656000000003
-0.40593999669353176
-0.47814680781714775
-0.37944834263277516
-0.5566116146428003
-0.5701063477105829
-0.5163565782688971
-0.3882028175242818
-0.5094294448928187
-0.5635717870754479
-0.5241226272575825
-0.3871850926312533
-0.33611781982118155
-0.5813538856060062
-0.519249798231039
-0.4287622902627783
-0.31245243454333643
-0.512024063168175
-0.5087273310985742
-0.3991068031609771
-0.5359545871464623
-0.5359720818350894
-0.615997961075714
-0.4412977695116069
-0.338421612178049
-0.42913854505305205
-0.4345517582876622
-0.37285536672275366
-0.5036059697628216
-0.37378619693626386
-0.48705609151714196
-0.5441823134218885
-0.3718618378196617
-0.5921775002494858
-0.4362214843749999
-0.5215660745639579
-0.45442456637003487
-0.5257055125025831
-0.476801344699318
-0.41037970961410974
-0.3714371111613956
-0.5719770246282433
-0.42360179913422963
-0.5592446400243586
-0.4502427484259643
-0.4931485427629118
-0.7160196348419096
-0.6243253710790735
-0.7805792158623613
-0.5710085392121661
-0.6433225911272671
-0.5425578231536684
-0.434541331886753
-0.5451227999999999
-0.5012372755388266
-0.6114811451368177
-0.6870224516559698
-0.6701714126885716
-0.6986531492202105
-0.6914144941610462
-0.6325186131432116
-0.6140648428443884
-0.48623144554973985
-0.553350525413851
-0.5624673792794656
-0.5505890963652039
-0.5581988807567123
-0.4254363145813276
-0.5244213078124998
-0.5747623912324594
-0.6671760216503974
-0.5104576582676
-0.42088106984914303
-0.43096412548047147
-0.6114034251451431
-0.6371380414714953
-0.7604042064476132
-0.7265837170214225
-0.6353491358472688
-0.640498766096504
-0.575796422560852
-0.3723489439999999
-0.5048500659087897
-0.5244570430414591
-0.5986473665423199
-0.5643952846662538
-0.6400398180669575
-0.4885379850382316
-0.4220464684438934
-0.48666198553754286
-0.41057283323000615
-0.49973988882466774
-0.5560450570748207
-0.5936198120681654
-0.4578123586358193
-0.5760547410876572
-0.5456142882083075
-0.5152275043903886
-0.4264129375453312
-0.4435874826852259
-0.5501858591254641
-0.5501207424950061
-0.4977027695273359
-0.4505397982941337
-0.5361555723913235
-0.6239700571342864
-0.4795405384067531
-0.6725325206191828
-0.5623745412275262
-0.6208471430495943
-0.5198289873940897
-0.39778780259316454
-0.4500108226568747
-0.580722335640994
-0.5015673352034716
-0.3878669242863388
-0.5361795573672641
-0.577830993174642
-0.3989956749196412
-0.4422380438750509
-0.6010698703006109
-0.5057474643521389
-0.3356457650977083
-0.5461168002599929
-0.5356053969485286
-0.5938588017257559
-0.3864324882340027
-0.52542219466832
-0.5633654829510234
-0.5281442834453861
-0.4235189541243672
-0.555406128012157
-0.7254078788592685
-0.5533332496383536
-0.6526669735988512
-0.5601844454050635
-0.5431330666481791
-0.686021814424493
-0.8199486121224958
-0.7720151008888175
-0.6820920316900025
-0.6417205777399269
-0.699713870950868
-0.6770805137310312
-0.5997966732796034
-0.5647474693118413
-0.6856494037455256
-0.6730356501756725
-0.711898082502969
-0.6887852746435215
-0.7412181403195487
-0.6668765068939636
-0.6522219188923336
-0.609489026462059
-0.6359676449943396
-0.6058929016037274
-0.5746236074946617
-0.5640809253596304
-0.5711058521870901
-0.5043660656599419
-0.6268253766935961
-0.591868171747779
-0.5793187311427975
-0.5770517228577087
-0.43999563065096114
-0.5551983478342367
-0.6625517543359721
-0.533461344880091
-0.6742871760694352
-0.6463627343974643
-0.5426137763714335
-0.5898554920459635
-0.6803217305974214
-0.4638105859392441
-0.49475036933038025
-0.5389037493107312
-0.5760611533692971
-0.50696559443508
-0.6630581103315994
-0.6164652969484051
-0.4397216886476087
-0.560815464444118
-0.3706770448439757
-0.5094857364778208
-0.5627757531244448
-0.6607711862120277
-0.5614668809381869
-0.6351226621400033
-0.5979427810291384
-0.5645303455878524
-0.510926455443668
-0.4353931424671877
-0.5745955731510629
-0.6493413234431814
-0.5376563408084897
-0.4851724500276075
-0.6492758382202083
-0.6536384226440543
-0.5191769747906779
-0.7197275295637527
-0.6016782754288077
-0.6489406284019326
-0.6164923696355996
-0.4730053606406018
-0.43430882130616416
-0.5549398872860826
-0.7122413351524548
-0.5634971691589673
-0.38396872692142986
-0.4721425699587964
-0.5742964850701391
-0.6475983999999998
-0.44582092149098046
-0.33560834006655954
-0.5597264568061232
-0.5411151118414846
-0.34158868016658367
-0.40691288289927213
-0.6131030680113183
-0.5639208149451204
-0.3595834790795926
-0.5321450671626371
-0.6454019999999997
-0.6178565161661811
-0.47545643221573225
-0.5132946626916847
-0.6541122424562875
-0.8324962685082926
-0.6740731911551968
-0.7426765295223917
-0.6229039884318456
-0.562889054810221
-0.6224845146668421
-0.7625994779835353
-0.6878397598902374
-0.6702277736589989
-0.6678231262761346
-0.7445799461805555
-0.8137334015921511
-0.6054017347843165
-0.5638949239512295
-0.6840884753322295
-0.7602241006858335
-0.706132690845216
-0.6734551731073908
-0.6978909894714224
-0.6162815302887293
-0.650630586666667
-0.6067203623549969
-0.6473779450980595
-0.6018532787179631
-0.5111319999999998
-0.5890366769993802
-0.511505442116139
-0.5099085655233325
-0.640286186332995
-0.5522393962014588
-0.49110446993180307
-0.5132376847366799
-0.4116230731720006
-0.6012262884444515
-0.6745804053819439
-0.45417930495072073
-0.6215105109331384
-0.6385454786486936
-0.5198182192097837
-0.5531301728343644
-0.7653497201901217
-0.5247312651952877
-0.4126612889387787
-0.49069107028727316
-0.6141930938980322
-0.5001756789020836
-0.6923372945243123
-0.7454122666666669
-0.4709432818032652
-0.5003972964344728
-0.27055411059431567
-0.540728757551708
-0.5875415591367633
-0.7387167442309027
-0.6655658607150239
-0.6826373796610438
-0.6667193098932814
-0.5569441732329232
-0.4619087054462299
-0.30230160336934686
-0.648176278179697
-0.6401935461701121
-0.4851687841779639
-0.3746212495760664
-0.6730218538817853
-0.61625425267162
-0.4762173483140059
-0.6980289929142937
-0.6375467182635657
-0.7362150099274143
-0.6114611111111109
-0.5082101030044428
-0.3884390199519832
-0.46901199539963817
-0.6322006734088799
-0.7777253936763796
-0.505536253358133
-0.3748384899600942
-0.33154106585349036
-0.5272861065243414
-0.5710640249488497
-0.3903885999173387
-0.24861256495324535
-0.4195126459607918
-0.5813353019567327
-0.31035535268994974
-0.2555886448163382
-0.5949002149648364
-0.4510965273444824
-0.3795040347975876
-0.5895066666666664
-0.6966175999999998
-0.6200569654383745
-0.49312123412149583
-0.4386773595288933
-0.5139411205850889
-0.7243917370953409
-0.6891531227301497
-0.8142510202740403
-0.628127905092592
-0.5554190659073798
-0.5205678302200921
-0.5759052960496828
-0.5683242525058948
-0.6142769083395695
-0.6485619694151677
-0.7846303041666666
-0.778456109350946
-0.5996051441353728
-0.5656444
-0.6329902414275819
-0.6953829996780496
-0.6758267465592064
-0.6240711555555554
-0.5963975644360852
-0.5535032424054558
-0.5712114719999999
-0.5193227604923797
-0.581311687179957
-0.6374510784053569
-0.40612999999999927
-0.4917947647861129
-0.3951465211372162
-0.45729659947086887
-0.6979352765625001
-0.5013324585115827
-0.47711893054046334
-0.3575958537947285
-0.3658379403837408
-0.6994711176689399
-0.6755893995949068
-0.4411122175571917
-0.6155181547304931
-0.6176010904229428
-0.550108551551641
-0.5182152879928243
-0.815662742646552
-0.6428055039999999
-0.3325623344830589
-0.33553326705593906
-0.5668728437745708
-0.5113922283147097
-0.6450943539942687
-0.8156928888888895
-0.5522774990700557
-0.3026508612017525
-0.27383
-0.47113891956843057
-0.551916743153077
-0.7129843385545418
-0.697734741337742
-0.6796995229749969
-0.6120819814336325
-0.4664322445809665
-0.3082024979742321
-0.26534682559365125
-0.6169780461154347
-0.5649680628780818
-0.4100619982944178
-0.3193216796875
-0.6341514661894767
-0.594823792506519
-0.4365429727216367
-0.6895359310264136
-0.6194308
-0.7570367947923125
-0.5769486666666658
-0.4447189732532197
-0.35360094852161894
-0.3381256325704402
-0.5252392830556337
-0.6198996025317979
-0.3862046662533593
-0.3065273622840347
-0.22662626320746956
-0.4318461321804261
-0.528191506344286
-0.24582366088034704
-0.19837214442464382
-0.24947355194767432
-0.5886187589059598
-0.2397714207480887
-0.21861363550476295
-0.4418856015199844
-0.4150686775373549
-0.407007391007751
-0.614452
-0.7133527146104566
-0.6249046402546128
-0.4551661675320327
-0.3964816024730506
-0.36843765265095857
-0.5436061735161066
-0.6743765061135111
-0.7775003714977339
-0.645916735243055
-0.5169869960545234
-0.45050825285460233
-0.4047304263282972
-0.45907653433405754
-0.5357356378590628
-0.624378847075842
-0.7091318726864401
-0.6768404989610874
-0.5879145753254803
-0.47393666666666606
-0.6383003847138188
-0.5515737413685926
-0.5742813166177183
-0.550844213333333
-0.4857269333399283
-0.45264966315354377
-0.4433962087290755
-0.3904891306369122
-0.601589935624235
-0.619137700911402
-0.37099219466831995
-0.3262969602151452
-0.2882504540713437
-0.5177781580364479
-0.7377522595486109
-0.4601981864258609
-0.4946657798815594
-0.23130483818942157
-0.451567461897085
-0.7875805463938832
-0.6088520238036298
-0.45948410320269367
-0.640423184144775
-0.4974655833003059
-0.562085028468852
-0.4849292387044421
-0.7131807392090203
-0.7365238666666669
-0.3929731071139155
-0.2333028553123777
-0.41303756782845563
-0.4753023594837244
-0.5430462663972441
-0.7109163377832899
-0.6050784517462287
-0.1852644163505566
-0.3541808103098028
-0.4667061195914263
-0.5858323404739365
-0.6398606681543733
-0.594188445831098
-0.5208513969441045
-0.41700493139965883
-0.22690522650765801
-0.5620149514295275
-0.5578125239171142
-0.37434527789726607
-0.6225003392058948
-0.5534507817719634
-0.6334569391057688
-0.5726358614038706
-0.3873473572112876
-0.3144369918202043
-0.27053846104559504
-0.43606037067608555
-0.493204135836041
-0.3350335210543303
-0.2448506601694405
-0.20020781560609183
-0.3129383143796216
-0.5385406738995658
-0.16686740168003622
-0.21699113377062965
-0.18433203772250903
-0.46188570090580594
-0.1953360096394461
-0.30621656031846545
-0.3190006944444446
-0.4606383298406598
-0.39015567408720914
-0.5550464651787557
-0.7004223238272375
-0.6288665238660767
-0.45461079109998276
-0.3867132751178139
-0.31418601785980543
-0.418715910150711
-0.5924789014259143
-0.6835458673101639
-0.6449252059963636
-0.5035411882082285
-0.42846685835916515
-0.3258358679324379
-0.39302259437264925
-0.48258537782186467
-0.5912658185571686
-0.5730148022243321
-0.6042287616065761
-0.4962142105806979
-0.410704128125646
-0.6155944279931425
-0.4994255830429955
-0.44719327740151726
-0.48117520143280307
-0.417240121646977
-0.34721167007140125
-0.3351254823475929
-0.3868227491596426
-0.6566922426091497
-0.564205072961334
-0.3817391093201077
-0.21481642241234097
-0.3340746079851212
-0.6462823538902227
-0.698598998882776
-0.42217017923385053
-0.549104225390707
-0.2942352405693974
-0.60549447830819
-0.7341695566521608
-0.5119522674143885
-0.49437809574554653
-0.6159100760119253
-0.3648421564372795
-0.5065395498007307
-0.45843310225985273
-0.5633710937808084
-0.6642487990576575
-0.5263833023085024
-0.305224551886127
-0.41064832024061393
-0.4661044762561423
-0.5617865900392646
-0.5672693609437786
-0.3113413878408174
-0.43277138084926814
-0.503682418740548
-0.5664219343396742
-0.5442228528925551
-0.5299955116897301
-0.42885588551994136
-0.5906978972922728
-0.5576178874974166
-0.5733837955778037
-0.5727232878693939
-0.4074356273797417
-0.3339634532468938
-0.29022998454651794
-0.3598461629698146
-0.4708279916414563
-0.3355513540509483
-0.2478375417957536
-0.2834736111915663
-0.2604153817334715
-0.47319999264310747
-0.15311086687781789
-0.2548382599565669
-0.2820299230407513
-0.3130844337673077
-0.17165817808127273
-0.38559602729845355
-0.34078103906250007
-0.49216665327315384
-0.3407635305286019
-0.48319161293655755
-0.6080872
-0.6115005166698352
-0.512180843585554
-0.4237297123595524
-0.35107627199834623
-0.35219133165323074
-0.46666130295515545
-0.6026113844627689
-0.6080021719686409
-0.5320059438128424
-0.44864919459392455
-0.3227047742202834
-0.3954372096754169
-0.48055400002791276
-0.5448339776463419
-0.500666659895833
-0.5347579469609419
-0.45192952241746115
-0.383991106633602
-0.589855662450493
-0.516985805886616
-0.40615972907625536
-0.4317508375146384
-0.4107038065529475
-0.29394966359341634
-0.3483720640000001
-0.4940135191222043
-0.6764207633354062
-0.47735948301471426
-0.4153741306743824
-0.27862528877867326
-0.5033039028587184
-0.675543708596713
-0.5937024034206128
-0.4078828203811564
-0.6111835796908508
-0.4991250507725074
-0.6117934561177241
-0.6187237878401195
-0.44332399480951534
-0.4984853183340676
-0.5371120396776193
-0.46799516490822207
-0.40098086553168355
-0.4831831228623247
-0.5607357585120893
-0.5498693114114388
-0.42766272252466925
-0.41375520137647004
-0.5133982925122266
-0.529865550372458
-0.4897713331650504
-0.5058920079477075
-0.5531176346787727
-0.5917680426818104
-0.5737329933044018
-0.5844273010459422
-0.5174833333333327
-0.4320345168121574
-0.3979980872459097
-0.388999556067878
-0.3370906259431523
-0.45621282094477505
-0.3028890535234567
-0.23815610030428494
-0.3875058052340475
-0.34097787419548253
-0.3732653333333335
-0.1419765709857408
-0.2333613189826134
-0.4228657196162687
-0.3060261177929325
-0.16911851353585491
-0.3780899082024434
-0.43005261888943824
-0.47069906584634863
-0.29113009633074877
-0.397648
-0.5024139999999998
-0.558376198979064
-0.5297291537026928
-0.4801737986387031
-0.4418763136598471
-0.34049363680966366
-0.44511727893726655
-0.523268488891644
-0.5447848055555559
-0.532299548752171
-0.5035298903064293
-0.38448552952279785
-0.4887884470029747
-0.48415025556677443
-0.4990926637735071
-0.4715478107638889
-0.5067622758525356
-0.4291060664404362
-0.3639939805744988
-0.5183436130112516
-0.52992465950592
-0.4445627983054354
-0.4343324800000003
-0.4357211097525316
-0.3437229299442039
-0.4685496000000006
-0.5369995854275996
-0.6058931612390919
-0.39495802869474345
-0.48636423703703735
-0.48244471791692595
-0.5537908671469812
-0.6017427699850496
-0.47489118602839514
-0.40736096761537577
-0.6163737549080387
-0.5922091007561913
-0.5331929043575988
-0.5268324925034976
-0.35884987119221984
-0.5211546013326042
-0.4358639418359722
-0.387287744968236
-0.5335064725604464
-0.5123629130266086
-0.45596410074773436
-0.46982809773643436
-0.542151578204291
-0.5302362432734032
-0.5556052453515877
-0.5829179117054585
-0.4698822222222218
-0.3780520484064028
-0.3911809574011507
-0.49286917150742465
-0.4022178873798452
-0.431633785906179
-0.30708241096645444
-0.18554428671136683
-0.39683633244040295
-0.4658528064439456
-0.34696768000000006
-0.20880412585244926
-0.19181714177688447
-0.4710698744460428
-0.38077623364077834
-0.25410238582351813
-0.304310704113357
-0.4601405698235797
-0.3671780587761176
-0.3132199052540914
-0.34364666666666654
-0.5028989535027896
-0.4887033383622317
-0.4574674831404569
-0.4774771842903807
-0.5452990309562206
-0.3874197246812799
-0.44956094473542146
-0.47372080794740884
-0.47871744212962913
-0.483543805793674
-0.538626843696859
-0.5289327470427879
-0.5995585224996559
-0.4838054924405865
-0.47582849624578083
-0.43589901150805965
-0.4574365652182591
-0.3844816249981155
-0.3763319237209302
-0.4086938078584146
-0.468176820768536
-0.4474949204120993
-0.48555960000000026
-0.4729607705590559
-0.47380240889991126
-0.5157843343170078
-0.46402322774642896
-0.46413246121935764
-0.3570385476725812
-0.5224600000000007
-0.6092187809591597
-0.47274390994771903
-0.4912958355103783
-0.3681934477637816
-0.44458829416992235
-0.5531656239269453
-0.485612321378646
-0.40239560034807714
-0.36403443576388916
-0.3564961469311845
-0.44785213846821753
-0.4994574684836586
-0.41384746666666716
-0.49116584084840414
-0.4874130874147557
-0.5050925156712812
-0.33112376190777143
-0.3212081599391015
-0.5240329169680796
-0.4827076110934368
-0.3980268853068816
-0.38577260120411255
-0.20713779130227838
-0.34803114697612103
-0.5263618714043351
-0.34078070332713356
-0.3253117870443782
-0.22954795060268643
-0.4069879726003982
-0.4189213407041518
-0.35828778903870534
-0.2654970995435005
-0.3704600989583335
-0.27235372166077637
-0.3698158763944754
-0.3531356023971893
-0.4991361996280223
-0.4616250295493138
-0.4030742370412354
-0.43987424174917145
-0.6132623721531943
-0.4627314961954819
-0.41396306321530085
-0.39753090385176054
-0.4455794000379944
-0.4703562954784057
-0.5532791413019217
-0.6769293673811204
-0.6582354185283166
-0.5229803414755114
-0.46791627967057164
-0.33779991737542603
-0.35931611970469296
-0.3585999472985697
-0.365666
-0.35224700157711175
-0.3386242050022721
-0.3547374858071564
-0.5166369556519944
-0.5476557426500539
-0.572201403430597
-0.4469501940731552
-0.35131820597918934
-0.3626708122556457
-0.3501398923677846
-0.6044513062700801
-0.3929445892651929
-0.38183255046187603
-0.33158990625
-0.48616880851613603
-0.4007816371864264
-0.32124874457532554
-0.33829104000000004
-0.4191429645267179
-0.3745749299442033
-0.5073323372597641
-0.38996677941643987
-0.32801652135750364
-0.5121765968943315
-0.5323480054453053
-0.32810064333920463
-0.43728627232791784
-0.35129920280065
-0.3455410898922748
-0.5144396400278742
-0.3408608366191361
-0.414322945970607
-0.3567739480298229
-0.32425965731589135
-0.3931377036577805
-0.43814276409851666
-0.32201609448137164
-0.2620815538194442
-0.299658146881381
-0.41565825927325006
-0.3858987941723497
-0.4445171667699936
-0.40107532997371836
-0.46731928289816
-0.4733760264631493
-0.6540245660343053
-0.5377491383554024
-0.4089962030068994
-0.2907578200455942
-0.3664316908516742
-0.5423372423704187
-0.6130961526348422
-0.7579637480104243
-0.7140098225258792
-0.5942931323663232
-0.40769447821463056
-0.20662758418255256
-0.32953959733743354
-0.3334623579251914
-0.3453886458411212
-0.27812306286391403
-0.23392885138239863
-0.499648559495764
-0.6219553810386954
-0.6155280454984027
-0.3469697450878275
-0.2882198031030087
-0.34949650328198206
-0.5143144677218966
-0.3247650386676906
-0.3422804342426891
-0.36824191595724726
-0.3310526381897087
-0.318787802631594
-0.44270274230212797
-0.4447966779873695
-0.4812871477400685
-0.5158292639694809
-0.5843062005416026
-0.3097700987385888
-0.4317671316142124
-0.5136073165397003
-0.4488568986898975
-0.46120100310291096
-0.3973152
-0.46633588295630174
-0.5359499220989523
-0.3433765175600492
-0.3563396238892333
-0.49950770284094337
-0.4634620630128083
-0.2885086596291196
-0.4159965556419208
-0.43836337016382326
-0.3606536143831367
-0.440809843514212
-0.2918391109093808
-0.5276353059324488
-0.6066483835934737
-0.6851471299579805
-0.6227998634884849
-0.4338417803265132
-0.27195739376868305
-0.23423984669105594
-0.6069722637737591
-0.7020997931968332
-0.7869157307180018
-0.7469608508252313
-0.6599882846321599
-0.29377534163902835
-0.16946974522125313
-0.39927091003644893
-0.35102793181727693
-0.18741817591558263
-0.4256397288558242
-0.6795884926276737
-0.5696453424904789
-0.2645497342180881
-0.33538131592677933
-0.35110210739524383
-0.32701449907005603
-0.30047580560444337
-0.4011730473729544
-0.4019072337364609
-0.6703725741826555
-0.5599510575042553
-0.6054790307252377
-0.4139115027898326
-0.3974606934926333
-0.5561081576624806
-0.6507723102807614
-0.41794001145030246
-0.4778356000000003
-0.4503776267413828
-0.6352543647040124
-0.5083434870499067
-0.3692841800911864
-0.49399981798009635
-0.5556777720569089
-0.4374339025407173
-0.443947925276679
-0.4343738437683638
-0.302285073901809
-0.4812599999999999
-0.23910108091238355
-0.4616624494520318
-0.7634671336872169
-0.6689367107788837
-0.6760624281551761
-0.3581631302622606
-0.17718190026737057
-0.5628677936667313
-0.7840965538840302
-0.7259501969040034
-0.7405803194592283
-0.6515082356142883
-0.23871429546434006
-0.26017280989583336
-0.2533585027898326
-0.344301796809648
-0.6822977359986736
-0.43088003831594524
-0.27696032000000004
-0.2749712461252325
-0.40201666666666636
-0.325177261121514
-0.7055370779628091
-0.685109413101367
-0.5240394348013363
-0.5504414176482749
-0.3551615829716885
-0.4628489981921982
-0.7741573991234082
-0.49093349688193294
-0.4955712737342424
-0.37056496590204585
-0.5556034299687908
-0.6560121716433858
-0.4481497118162681
-0.431863169043191
-0.5107522585235954
-0.5199574721447269
-0.35769060609943487
-0.4575268723514213
-0.34467
-0.263598869324405
-0.3677562764662899
-0.8064695318824787
-0.6687711641094825
-0.5941657742729276
-0.20942357638888898
-0.49298813474167785
-0.8144267487495624
-0.6242569123896959
-0.7271091307805583
-0.5986625650190974
-0.26357050836949825
-0.33409746666666734
-0.6231360537462374
-0.36421201487910804
-0.2803959386991099
-0.573894935545129
-0.8066752695453246
-0.47460347312790335