<?xml version="1.0" encoding="UTF-8"?>
<VTKFile type="UnstructuredGrid" version="0.1" byte_order="LittleEndian">
<UnstructuredGrid>
<Piece NumberOfPoints="1536" NumberOfCells="6750">
<PointData>
<DataArray type="Float64" Name="f" Format="ascii">
-0.5155373127079588
-0.53893
-0.5537120396747544
-0.6455467055200779
-0.46370024056048115
-0.6933597856270407
-0.5783783430666
-0.41320052083333336
-0.7256761910861592
-0.5716574372569064
-0.44497570055796654
-0.7131930139451851
-0.5714026882344431
-0.530314
-0.6605298143385622
-0.6253129623914214
-0.618304476131432
-0.6192968250541129
-0.6391080787566733
-0.5098546455879314
-0.6250368756498784
-0.7668156358617714
-0.6386955837983058
-0.7118081313745305
-0.8206026977135005
-0.6679753136484575
-0.7262679390010779
-0.7574510225921843
-0.5576660649721018
-0.7856814087053653
-0.657298133673073
-0.5238027537238453
-0.7460008899797287
-0.6202293862115624
-0.645723936970449
-0.5603022339108511
-0.6089791473781345
-0.5065582362058276
-0.6205797546397944
-0.6493649589463896
-0.7674519015143599
-0.69969969956425
-0.7669693256458282
-0.5567598605083695
-0.8361569973244891
-0.6449922506513837
-0.7556166994718142
-0.5019962828270303
-0.8239737246524039
-0.606292005893894
-0.6302516983388743
-0.40690924375684384
-0.7716758279542124
-0.6137487375563456
-0.5591425697579402
-0.6860376435230152
-0.5546054066512055
-0.6224972872307111
-0.49831321686298824
-0.4632122481588488
-0.5463550262282049
-0.49994856375284147
-0.5831470745339506
-0.6038159751980295
-0.6600153844056664
-0.6172852348162926
-0.5872456540224466
-0.7200561957745589
-0.730091604333262
-0.5675855962404807
-0.6437768749011373
-0.4107342839429627
-0.7670964641097683
-0.6806025490405525
-0.4671693382930356
-0.5741882663419964
-0.3844314789501554
-0.7332345146181681
-0.6613209151411167
-0.40784567246117237
-0.47282388516410623
-0.6977879699306212
-0.6244950939588579
-0.3766097456726371
-0.647894208423213
-0.5950757878108454
-0.34022778868403186
-0.565956511494135
-0.37717401107666854
-0.4497269604385838
-0.49326634131835695
-0.5089999999999999
-0.5945756750780166
-0.5613042514371495
-0.5958175564236111
-0.5215767393367746
-0.5506704639381902
-0.6012443564529663
-0.6239237743046773
-0.529621053936764
-0.4750988541678795
-0.6071988048839567
-0.6606113164515687
-0.6058318313057511
-0.45501893333333326
-0.4821895895649622
-0.274896666666667
-0.6184225618522773
-0.6576826889996608
-0.530125600363956
-0.4080416387683404
-0.44294897520745996
-0.6426160946803758
-0.6044830804000564
-0.45279879889828883
-0.21922876351086093
-0.5872040872835836
-0.6211339657322003
-0.41723933724988543
-0.18825992187500049
-0.6210210492498422
-0.4468001121450224
-0.21346690638561713
-0.5090355171218688
-0.32161013333333344
-0.45727789625955795
-0.4759695423013068
-0.5604600000000001
-0.6229964816169631
-0.5640645182305667
-0.5942863229166668
-0.48328588245301146
-0.6176029402649252
-0.519500655300682
-0.5178499658032899
-0.4879851667845993
-0.5087332097082576
-0.5360067682889746
-0.5904593167923955
-0.5884148337660805
-0.4587249599999999
-0.353127783771124
-0.5355682138940594
-0.5733959355158723
-0.6033375820972412
-0.5139266860685722
-0.43725042033477995
-0.3210380783158852
-0.27134600000000003
-0.4894408109045645
-0.5781289747444766
-0.5760435333062404
-0.45893541580064784
-0.5281402268000691
-0.5848052056530385
-0.4263177057454803
-0.26833953150663076
-0.20639908103416213
-0.5756990698512154
-0.43465730609358405
-0.2504363250177751
-0.19427146354166672
-0.49607854634804305
-0.3308535280302563
-0.2539941934283943
-0.4708180061813743
-0.33461791999999996
-0.3941228766274023
-0.4998720761774856
-0.6242133725976444
-0.6094943101498353
-0.5845979086943527
-0.5479769448198123
-0.48695984638699424
-0.6142924019646174
-0.4890872621941709
-0.5191958788674532
-0.48598402635540167
-0.5786451865933517
-0.4518797879727216
-0.5787664904109371
-0.4922862185944405
-0.4901549732675476
-0.4590327516015706
-0.516645283159992
-0.5566585095534186
-0.5774835458012736
-0.5132987123037184
-0.4473085422918022
-0.3364287508628356
-0.4621457548445053
-0.49991656433672743
-0.5777360597595412
-0.5392453409106567
-0.4815739424081506
-0.2854689448471867
-0.3882245990907218
-0.38397957946663824
-0.4488203627683511
-0.5534757907955447
-0.5253831035155522
-0.5228911924170252
-0.4209622609553468
-0.2953807865335516
-0.2286313406367008
-0.37692973914501765
-0.44616774262293285
-0.3039063189501967
-0.22632530128163966
-0.3764212183614479
-0.4114564525928754
-0.30328208761196157
-0.4025542741368157
-0.41892231653616824
-0.3994049604463736
-0.35005669423957314
-0.5725487280268189
-0.6504470500103328
-0.6051926259425404
-0.49445507749535
-0.5758849554730198
-0.5503049210583387
-0.546408062191423
-0.5114823611765044
-0.5123558066594618
-0.5329859423434592
-0.5162876629128074
-0.47823609634221914
-0.5395673245322299
-0.5063087346332681
-0.47859865157770215
-0.4769338062881901
-0.4615702210989264
-0.5417066961180391
-0.5479963673745113
-0.4708979639924151
-0.49757929014259145
-0.44569033994626933
-0.5069471041902923
-0.5092726309568841
-0.563477698779177
-0.5261787800206652
-0.4458336425212854
-0.43111489726611124
-0.4095894654288059
-0.45941254825834593
-0.5153056431970899
-0.5419406347179171
-0.5430379726757703
-0.3928968031137188
-0.4874782889026656
-0.3143306306337499
-0.3728165181664221
-0.4754137406430778
-0.5322582472124413
-0.4509940585070377
-0.32420206497210197
-0.23680427461815365
-0.34602729081071293
-0.5595944214198774
-0.3649664625055749
-0.25867382686505463
-0.3420315206269777
-0.5710484211587052
-0.37595007364732774
-0.3720474591193643
-0.5380905444238123
-0.40257460887016333
-0.46891836507542833
-0.38123511877303456
-0.6480774556814527
-0.644228
-0.6074175224750451
-0.5960789101346381
-0.5936175052083332
-0.5231995201210539
-0.5573447737135772
-0.4804116211528792
-0.5166408506778203
-0.6040377985120893
-0.47000106760406807
-0.5855549599999998
-0.457527594295467
-0.5138816338479087
-0.524985365433629
-0.4305036814741849
-0.5353906683199008
-0.473080782888097
-0.5149341211962698
-0.49545378820561164
-0.4621864062822896
-0.37537287448947826
-0.4849678924501403
-0.5355318411325141
-0.5355486324295081
-0.4757992879382494
-0.5151534265344079
-0.503045586877941
-0.49192610486073657
-0.5078944312325641
-0.5631136605660312
-0.5482660180285185
-0.485841217845592
-0.4916686106697495
-0.44583731553184996
-0.4250180174525989
-0.49099504638660224
-0.5354125468347454
-0.5697047262624004
-0.5037152589889634
-0.47083400000000003
-0.3505719342252069
-0.3333590887968916
-0.43462681501687733
-0.49347950441453864
-0.4115873226515418
-0.2870460065468074
-0.2925127592625038
-0.4884978409219995
-0.6456359353958706
-0.3338561615297131
-0.30809523826425694
-0.47504595180274434
-0.7268056145833333
-0.386827218351721
-0.45931855675363015
-0.6728235685058896
-0.43117425138797794
-0.5601896000000001
-0.47499275635461874
-0.6764670305247275
-0.6147366666666665
-0.583819421332176
-0.5829696260868832
-0.6193437999671495
-0.6140195138888889
-0.5317853509387311
-0.6812575139491636
-0.5072041587218118
-0.5440333545458237
-0.5977560843149412
-0.48704629841164865
-0.4296219411339363
-0.47997557826882636
-0.6928020000000004
-0.4431481997114924
-0.6341532010746026
-0.4117744864040222
-0.4670671624299831
-0.581437305109811
-0.46317222222222215
-0.3785372191449919
-0.40642450438308214
-0.5076976878512786
-0.5814491501908331
-0.49514572646923033
-0.4874587431287453
-0.3614150891877234
-0.5464804742651506
-0.5867015015696372
-0.5583833695023142
-0.5218213569116767
-0.5638742261041114
-0.5361030125450752
-0.528007761915415
-0.5477328450959439
-0.5731644461665634
-0.5597591603389133
-0.5525855123892327
-0.4513977328207988
-0.4994083014133525
-0.4511410277910404
-0.4949308116619892
-0.5219546222222219
-0.5121802883561141
-0.5485875135471031
-0.34146999999999933
-0.4366683404746235
-0.35838819032314095
-0.4116606086877461
-0.45722181993524846
-0.38476736171709885
-0.3069385734247614
-0.40421028979373586
-0.6016279383337718
-0.5715576818153628
-0.3439025476054139
-0.40718891256457473
-0.5827953097280573
-0.7179519921874996
-0.4295551301623571
-0.5357613586326905
-0.6841465633395326
-0.5023653595486871
-0.5944737333333333
-0.5630597933457329
-0.6549999601132532
-0.5718056995246955
-0.5564410612786342
-0.6069947263377865
-0.5157863701177929
-0.5183740789454919
-0.5248209697526003
-0.4964805693325068
-0.49931468801227535
-0.5051551066987026
-0.5335395545219637
-0.4753617792940413
-0.5812163818493536
-0.54887
-0.44805558621117253
-0.6384320038440077
-0.6308666050836953
-0.6206663176365672
-0.6061050233885276
-0.5453457530799238
-0.5721492200473839
-0.5777647319547707
-0.6747950959417742
-0.5628035456757504
-0.6968064735689196
-0.46496922262692003
-0.4977378011798083
-0.6316577201797874
-0.5648480000000003
-0.6413459625555631
-0.46231371682113404
-0.3897760208716327
-0.547486577827378
-0.6699673609647898
-0.49854290993723277
-0.3503343584955569
-0.48598083756638405
-0.6206230356553953
-0.632127962551925
-0.4539853333333334
-0.29830306721221816
-0.5117102698908322
-0.6091091265906473
-0.654374091145833
-0.5337115497550992
-0.5601659315973524
-0.48077721192721184
-0.574799010046259
-0.616267218226906
-0.6020145685763886
-0.6045536087107095
-0.6056725035965913
-0.4684225065096091
-0.5862683159356625
-0.6104961384636005
-0.5738664852242201
-0.5259059466666668
-0.5075118801457804
-0.37021821921866044
-0.4724047750509168
-0.5287800888636212
-0.5165873538336819
-0.4960029066666665
-0.4250791349452368
-0.5237491959094952
-0.2439346724529865
-0.4608657585468224
-0.4552812948101988
-0.40314778417010433
-0.44636414548460396
-0.376325634147948
-0.40131138795452864
-0.45353870509936384
-0.6385408657546793
-0.3978429457950185
-0.40402164054126816
-0.4679103181070469
-0.6320761025303482
-0.5024528371720455
-0.4861943370884709
-0.603557187831442
-0.5048057395320916
-0.6146169957448925
-0.5314189882207073
-0.6055700383264871
-0.6104483846524767
-0.5985126621902848
-0.5442789697154629
-0.5413945309874857
-0.5318262080913704
-0.48941952567329433
-0.44121709443235263
-0.5398023748244701
-0.429505378801949
-0.4116286305724432
-0.6141176779885229
-0.3832847916666667
-0.6637617011117933
-0.5078280474874418
-0.6121023486257495
-0.5612712442653439
-0.5976101447397961
-0.628707417006702
-0.5605065370061676
-0.6263560472947026
-0.5495401594878045
-0.5381514645800513
-0.6713225811555747
-0.577011767265964
-0.675328728549252
-0.5930879265107701
-0.4703425188152975
-0.49905951645161695
-0.6570173105572459
-0.6770158317834268
-0.5320267999999999
-0.7892531718524795
-0.6492940351253368
-0.46336822194956556
-0.4267679509540548
-0.6348802681772906
-0.40015939326601835
-0.4534628973341602
-0.6403766256688299
-0.7700300359828668
-0.6350583157294313
-0.5288226203761113
-0.4297826229930483
-0.6067359956031626
-0.6647194129095975
-0.6567768062500003
-0.5945649992590699
-0.6537534758432092
-0.5278582689322043
-0.523931058372943
-0.5794424632362056
-0.6359742397943827
-0.6967289533568993
-0.571233463732176
-0.37382356788592636
-0.5559916751460642
-0.687420351600426
-0.5717678254355235
-0.4826584480000003
-0.39444128153874486
-0.31415043748704613
-0.4251331722487725
-0.5208938530663941
-0.5818189831482959
-0.4843279186195493
-0.42620423360198395
-0.4335960332786554
-0.24832695598264107
-0.4805500462505529
-0.48694115061944393
-0.45672372229943886
-0.46809651232146704
-0.4158380755982985
-0.4691576572845631
-0.5008400242147223
-0.5503831883856881
-0.23412832721205415
-0.4653239265714981
-0.541656395384722
-0.5879256564803194
-0.22564697652294494
-0.5949873737404998
-0.6512268666013749
-0.26798180845128833
-0.7331611385116997
-0.430770724612523
-0.6015546819279497
-0.5344746693531717
-0.5481805094754121
-0.6002411767284372
-0.4779227812576749
-0.4721156263296245
-0.4288875722791008
-0.6019116618740469
-0.45195616518660575
-0.37816651542758023
-0.41308733433816164
-0.6546313334810082
-0.42456048357098564
-0.32207927717417123
-0.5433829406789693
-0.6925365818960288
-0.6799466888194435
-0.39841371559630917
-0.5177517885926844
-0.581806077702005
-0.5510048256800976
-0.5937001575828327
-0.6692108870072778
-0.5031101768547217
-0.7102035406764483
-0.6363090241898507
-0.5283072688835718
-0.6298074654373168
-0.684353043201238
-0.5396977507348525
-0.6474021697621454
-0.6287059495980007
-0.47921763588350846
-0.6510346664282615
-0.8402034667797055
-0.6460437764000833
-0.5594372715437076
-0.7997834608209122
-0.8344555546554786
-0.6355086093938401
-0.45900850849349045
-0.6042439466140533
-0.46914116546600965
-0.6061831009878079
-0.7305617046432853
-0.7728012454689442
-0.5973827919029712
-0.6600431459667968
-0.5588100084916584
-0.5859881080664047
-0.6207498909127476
-0.5986607742894102
-0.6818867381188305
-0.7103854143418066
-0.4508829004078037
-0.4721564828600951
-0.5383327670032069
-0.6908157938174319
-0.7304523595370153
-0.47549916408348797
-0.33679561321803225
-0.4852360368940327
-0.7020367080529512
-0.6150379608716859
-0.5034564045629266
-0.39060204113662683
-0.24884611119834346
-0.4118554794748715
-0.4896145677979374
-0.6174363567185766
-0.5218342158572701
-0.5255590738046568
-0.26717492229272827
-0.287808837569746
-0.5242662699076627
-0.49612226819201366
-0.5167065467575949
-0.502151226282109
-0.4530977319390513
-0.525755390865882
-0.5861515986910514
-0.3473056875667711
-0.1370445838537324
-0.5457461506587765
-0.655452973555855
-0.4501696853247766
-0.04556195343740244
-0.7256434800140336
-0.6203764128431076
-0.1258653360519639
-0.762808227335077
-0.3760686858855133
-0.6070638592479451
-0.5161771357718533
-0.4638630318942945
-0.5405265298626444
-0.6561526977280966
-0.5229469313074935
-0.4644223893837021
-0.3070939112444257
-0.5231883887107626
-0.6949719875667207
-0.5225084
-0.3934025724036225
-0.24500434215353203
-0.61999205550344
-0.7045712034556563
-0.3231335276931878
-0.3739796371735089
-0.7385602372689677
-0.5489640244724444
-0.3328207504104514
-0.3827717420954736
-0.6384886666666665
-0.5524509096692612
-0.5049267017658264
-0.6884398040384062
-0.6717779873335167
-0.5777412648535556
-0.6913066048770408
-0.7631250661541317
-0.5770637224990166
-0.5480593559649698
-0.7503983381058427
-0.6385325387066982
-0.7102327371235863
-0.5854621588561462
-0.5676747981424692
-0.8117709461805552
-0.8676920151856357
-0.6065599139062264
-0.6712038005786312
-0.681268036670605
-0.8540329849772031
-0.7580234746848515
-0.5599635353585449
-0.6097507075469137
-0.5613089917454027
-0.6428229333333332
-0.7020933904359553
-0.6491807029445265
-0.6162789022171041
-0.7790146666666667
-0.5274681897086179
-0.5297554083157673
-0.5551648765565956
-0.6102301249206209
-0.7861918158596315
-0.6564776028104983
-0.41597003725337106
-0.5123944814285976
-0.5936186289439985
-0.7725279565972225
-0.682715317059269
-0.40941267175397483
-0.2865709350173539
-0.46136203859165
-0.6510160009735361
-0.6924852694771642
-0.593248396230626
-0.5198231192788902
-0.1978054846711599
-0.32537453998551863
-0.5209435621880515
-0.6023515735330256
-0.5823466666666661
-0.6137606624216059
-0.12575901240493395
-0.3364083018087852
-0.4459913574921544
-0.5595950760183368
-0.5539255583385002
-0.51132826782393
-0.48673036246150664
-0.602070889101043
-0.5548594736698257
-0.16976445835043374
-0.1488874177880757
-0.6270280773386168
-0.6576310043339751
-0.3190406970946578
-0.0416444233105887
-0.7302125037771345
-0.5567212727107632
-0.13711562063755217
-0.7457932154244132
-0.3930384042997414
-0.6292887620781408
-0.544276666666666
-0.4240275678374386
-0.37482495983502356
-0.6851987620126749
-0.7017032497670788
-0.6045237073775573
-0.5022459778191086
-0.282659755981349
-0.29268211926738624
-0.704794867467106
-0.6759703920061176
-0.4651018495556929
-0.218954915918208
-0.3816881192798888
-0.7282565769507858
-0.3978663894055238
-0.28441303585441075
-0.5462484948183057
-0.3715966829463429
-0.32655511834625345
-0.27297000000000027
-0.6500684000000001
-0.6031348074896138
-0.44433141355391403
-0.5377716202184716
-0.7621460528281808
-0.6608020376088554
-0.6110798743105168
-0.7959630052204107
-0.6619018749999985
-0.49817688636978724
-0.6717349437588811
-0.7110189485011987
-0.696430424326217
-0.5626162054479428
-0.6531899369704474
-0.8454032973958333
-0.7267043721645478
-0.6632091035062205
-0.8030244
-0.6074486120325472
-0.7118384552753909
-0.762028947799132
-0.5901241333333331
-0.596705767183355
-0.5242048563752846
-0.5979632319999998
-0.6142552721935135
-0.5914727407600436
-0.736023316113832
-0.7669622222222215
-0.45669588394296334
-0.530204170908947
-0.5950016001332159
-0.7410111713541666
-0.8027252921928062
-0.5459920493876806
-0.48444881519179545
-0.6335213586606048
-0.7341030698078117
-0.7802351750578701
-0.5993030730200052
-0.3662148006241139
-0.2193542535711059
-0.4011624303280195
-0.5923018121041838
-0.7117309881518211
-0.6971516480000001
-0.6436579065238657
-0.2513520525879814
-0.20562410556525756
-0.4643212044475457
-0.5854248744473644
-0.6149428444444441
-0.6458194395536269
-0.16376152727346324
-0.45834
-0.3067017903793516
-0.5198269503219665
-0.5899804811439361
-0.5099056809258107
-0.5454448007088494
-0.5680974452626267
-0.4435839295563355
-0.18582745577972204
-0.3270469322338645
-0.5964171330486475
-0.5807493194339313
-0.3190146554762892
-0.24681858072916668
-0.6744892169130497
-0.5363596517546315
-0.30618755734655917
-0.7273602471738244
-0.46480479999999996
-0.6191228642281462
-0.5898113333333331
-0.4458087827439256
-0.27836162124161107
-0.46921535192957703
-0.7237290023076725
-0.6294302001746842
-0.5533464645587934
-0.34726551319638427
-0.18909572078480788
-0.4465927830652336
-0.655258448191776
-0.5215497513949163
-0.3100355864143794
-0.2379695089459967
-0.5032110486403675
-0.46823303120479404
-0.2818542657114697
-0.33050227225246603
-0.22156316799966977
-0.3714438925064605
-0.280262
-0.60362380243852
-0.6526853363920057
-0.4565897083806925
-0.4005946279802863
-0.626752524070866
-0.6592346629864022
-0.5996172009340358
-0.7056142417401099
-0.7088898506944438
-0.4942758332997032
-0.5565083193428003
-0.6485753710656202
-0.6194661241248979
-0.5164039162912455
-0.6654901109733409
-0.7411785395503435
-0.5931950852827886
-0.7836525122959285
-0.8016253333333333
-0.6668396594482711
-0.5835568186104623
-0.6772162526551481
-0.5386778399999996
-0.5106262803478888
-0.4332342971688365
-0.5514317394089686
-0.5732309493772778
-0.673214222219531
-0.7755377730795456
-0.6568310725356482
-0.45412525917289354
-0.5822415304461952
-0.7290985176690675
-0.7850303142361111
-0.7069527988733454
-0.4671335348244474
-0.5675977047052162
-0.7681590743707375
-0.7808905021698699
-0.6844860731249356
-0.4951302987931728
-0.32292589091498874
-0.2671930239520298
-0.3228168264406676
-0.486320711534491
-0.6586325234875455
-0.7318420266666669
-0.7193722657267676
-0.4214573257279848
-0.2617176441399253
-0.35727596567944686
-0.5055948702493608
-0.634296877371357
-0.6498045707790867
-0.40440673277169975
-0.35554668465739847
-0.4100035556923897
-0.560944913768978
-0.5622431240782706
-0.5722610572893688
-0.4757110908223976
-0.46225688486747335
-0.42081510119394466
-0.5304106460410092
-0.5581763024677683
-0.4636217369262996
-0.6407427772009414
-0.5438026132473599
-0.6536823918402453
-0.6163734917682717
-0.5089468583162388
-0.3071488295121123
-0.29671907285596616
-0.5198576991781958
-0.5707444615458438
-0.5787443279660025
-0.4377537876586082
-0.25663231519646074
-0.25748057446867606
-0.47108641983880967
-0.5031430654374002
-0.4320063686018969
-0.24356655493243937
-0.29547659287136246
-0.4686576519269729
-0.3647127807513428
-0.192757973090278
-0.230621830987662
-0.42979541216227174
-0.38911042984087685
-0.5510556439346974
-0.6642214560772253
-0.5063406602081842
-0.36901379766228287
-0.46894279254977717
-0.5303208718298117
-0.683406080595165
-0.588544099793614
-0.6959015671555505
-0.4779006937190308
-0.46453156557139924
-0.557544650986918
-0.5090367986364923
-0.42014549964868836
-0.6271004390330185
-0.6154583419920937
-0.5885872125082249
-0.7773141148308874
-0.6892050109526767
-0.6611921006852576
-0.577489148325563
-0.5896676212115041
-0.4931762040228693
-0.3964385807999609
-0.41992635738308154
-0.529978798255838
-0.6219964356138719
-0.6668842654813095
-0.6677937317986884
-0.5643391072535644
-0.4969019615582064
-0.6705620408844815
-0.7477037306075843
-0.6593320713823675
-0.5841090940759434
-0.4394349881211168
-0.6464175369250696
-0.8029233187848727
-0.6810514931027067
-0.555467410778096
-0.433259685557241
-0.3578125675145896
-0.4296448760074395
-0.38790605586006977
-0.3947276489565799
-0.5711087536473579
-0.6940940189625961
-0.755032372958766
-0.5011113586108695
-0.4332202721320488
-0.397799883460588
-0.6401084300475298
-0.6615007413158763
-0.5916251829885864
-0.4547438760022173
-0.47887652077434
-0.6544895300248915
-0.551295826721455
-0.4673592654843736
-0.5968314341031045
-0.4945490206532526
-0.548482765364745
-0.5541624145507674
-0.5754142749879456
-0.5639115236956579
-0.3893887051083968
-0.2939223960707114
-0.3629628294373592
-0.450119438975943
-0.535690956054217
-0.4870506145030819
-0.38852123046928827
-0.25486234858804924
-0.3437413808638146
-0.4354035502767542
-0.5221793241370863
-0.35760694220257355
-0.21567518185575538
-0.4351613466172229
-0.5127437217037443
-0.23102709895833332
-0.40845042354406574
-0.48165500046766846
-0.49266391506509577
-0.5604908000000001
-0.6221842841357718
-0.551056842420414
-0.37128013185298164
-0.3990425501274366
-0.45753470801515067
-0.6882201429358688
-0.5509206785541569
-0.6655209532587333
-0.4717209564211889
-0.36721882055796656
-0.4785779458450516
-0.39030598930919685
-0.38058844759092003
-0.6234288378110349
-0.5719172151041665
-0.5598441095202188
-0.6440776014594948
-0.6093245034097955
-0.5189953851411603
-0.5333083248137777
-0.5745218240545568
-0.5308308345939241
-0.38366188328418477
-0.5078596750798309
-0.5557163680000001
-0.6108920426105601
-0.48801960203940103
-0.5664202569000311
-0.5322845357167454
-0.5572072240545566
-0.6982123412964115
-0.5708526084254827
-0.5356243389259147
-0.5225756870495245
-0.4625832222351451
-0.6906755955394629
-0.6745085806337072
-0.5742341296135436
-0.4638675151393978
-0.4861455559711983
-0.46201695908245505
-0.5560119179870969
-0.4542634065987841
-0.45948138507417563
-0.6656470636577807
-0.7058395083324086
-0.6289948107620054
-0.41868630255911476
-0.5683512789005984
-0.7210821438705742
-0.5935519767896382
-0.443441176026986
-0.6666848162331513
-0.4912681518679251
-0.48517121686298825
-0.4231691461674729
-0.5281853333333333
-0.5605937649712623
-0.4545344072577175
-0.36523312570613814
-0.3398379526063737
-0.42616585244372857
-0.4998881227526351
-0.4742538908045119
-0.500417191555565
-0.36214188622884796
-0.31611026666666664
-0.4180909460632361
-0.5431688505102835
-0.520377385504453
-0.2883578859268444
-0.4132199935937179
-0.6268393873953394
-0.41968709268793797
-0.59549360310511
-0.467843357105943
-0.48158600000000007
-0.5587999999999999
-0.5818054837456347
-0.5976384222831066
-0.38711920761972257
-0.36276784119859484
-0.43786377672859383
-0.5797986936855921
-0.5235141944323888
-0.6609633541666668
-0.5698538547247769
-0.3307212158407482
-0.3831978507784512
-0.35759310189956744
-0.5157951646128112
-0.6646238375697461
-0.5340282682291663
-0.4303189881756497
-0.5856303761152507
-0.6117637933457328
-0.4532993980326961
-0.3552180305779744
-0.5555466189295307
-0.6049522400000007
-0.5253075589548949
-0.5996474763380866
-0.56226784
-0.4158209408994675
-0.3795100434949559
-0.5542330348752172
-0.5407329419465974
-0.571925003926431
-0.5340076004018909
-0.42269115051287787
-0.4748816439750592
-0.5492089311740197
-0.4937496032238067
-0.5971959139880412
-0.5484729507129559
-0.4689674406317385
-0.47310861120172953
-0.5671041393278983
-0.5788630422010614
-0.41408983132088406
-0.5883062067534611
-0.6684130385053314
-0.5236393221957826
-0.4695176550973303
-0.7251851967408838
-0.44838080322380675
-0.5571021252835359
-0.4003944772024984
-0.5074244444444443
-0.5520259477818789
-0.5081527150006176
-0.4276802895532423
-0.3629834917457364
-0.4400033333333334
-0.5153973128056762
-0.47414053180835053
-0.5564412716560218
-0.4734634521166949
-0.3454076000000001
-0.4666578766274024
-0.5209734191740497
-0.6267132251888249
-0.43302043915825544
-0.3966099225046493
-0.6331843116068682
-0.6038431068935335
-0.6681877032674065
-0.3483972103359169
-0.3299366666666659
-0.5188919082455055
-0.5549736992718427
-0.6608059554455555
-0.4960034989354818
-0.34888507864888213
-0.36754587811922196
-0.5602798269917508
-0.4637259736606461
-0.6455536024305562
-0.7112740414851078
-0.46435554790640415
-0.3268037203693237
-0.4707306845443586
-0.6840054541682167
-0.6597603633670875
-0.43483077641569
-0.4027866532084374
-0.6566519167658411
-0.6337469699224806
-0.5306111925337244
-0.26893890310345747
-0.4373406972972374
-0.595964488888889
-0.6590732485430744
-0.5767786353929872
-0.45379116407522296
-0.2566944490391718
-0.41020463772872695
-0.5916041004188485
-0.5268799999999998
-0.4781213781874314
-0.35789504182026466
-0.384620183452703
-0.4722453379147821
-0.5898401485936303
-0.492243915210759
-0.49503972043913086
-0.40027885959037607
-0.5566433116319444
-0.47979066129365583
-0.468237621515246
-0.6663306269282657
-0.4364354666666666
-0.5918836849252287
-0.42805272576978703
-0.510813280980919
-0.5740070456159345
-0.5819757912929133
-0.49721555857073046
-0.3831921184994187
-0.3766243397396156
-0.5383456611952181
-0.5304984753852401
-0.5875611166781295
-0.5349124295662974
-0.39854119950403
-0.5157977570017422
-0.49947403336940027
-0.6714119166567071
-0.5471796331012343
-0.42011212908003825
-0.516432578152683
-0.73525134375
-0.558904603095872
-0.2882078280521158
-0.22325659640421602
-0.5528894649721018
-0.5508822664555116
-0.701136864564139
-0.6454495464872171
-0.4185445076593777
-0.3029372786446258
-0.6703941801900516
-0.47693699204192086
-0.6155839688669612
-0.7485182584868219
-0.633439460657161
-0.3731691259065841
-0.5928950790227726
-0.6885225878349513
-0.6033055437580278
-0.3893864476034563
-0.5290133699394494
-0.7011316433654639
-0.59502
-0.5971447141666709
-0.3764456033975227
-0.34180283471630263
-0.51837393475236
-0.6307164060700404
-0.46916676916231564
-0.34629830266584
-0.31187908020321503
-0.45834421630353733
-0.6202002736685472
-0.3929425021714072
-0.37303135878548693
-0.3870680747918946
-0.5485703828124998
-0.5149410896333207
-0.4447317903194173
-0.46112033353998777
-0.43325864000000003
-0.5778156754505489
-0.45364097334159953
-0.5516954536061168
-0.617113185978241
-0.6537782479646705
-0.5794845602807167
-0.4180640239561526
-0.32217267608884564
-0.5404882553946951
-0.6123714464467919
-0.598875922849432
-0.5946870036013592
-0.4531467782599706
-0.5270632647565944
-0.5125517849141645
-0.6153106427033984
-0.662218604463732
-0.48825938851316136
-0.39005623474559137
-0.6956825173611104
-0.3697518055161311
-0.38570446917439277
-0.27393477061376326
-0.6496787454019429
-0.5716116550674287
-0.7218130104890892
-0.699103784073131
-0.5260469400289308
-0.32092915264908106
-0.7067048185470872
-0.5662734802162271
-0.5940639198951024
-0.7121028548396887
-0.6538406326513738
-0.47069673267867534
-0.597194998673979
-0.5971065466789884
-0.5613994546345205
-0.4706403591443979
-0.601461328086978
-0.6533447923124615
-0.6069171285531763
-0.4921862047132202
-0.42163297798043137
-0.4727649384583597
-0.5090536927598502
-0.4059680673963242
-0.4155339178342637
-0.4349946890349194
-0.5150237347713562
-0.4465773036065083
-0.4525449127821199
-0.44520161559116117
-0.5330711318483197
-0.43182636296755533
-0.46698548627363407
-0.581277765722945
-0.6233605588342814
-0.7076755335299851
-0.5952512212101323
-0.49211802421085277
-0.34959553046920483
-0.5003638559439966
-0.6285352566145422
-0.5820793732353943
-0.5757105471442455
-0.53928136
-0.4806145817586031
-0.5188311547054701
-0.4577336165035812
-0.6542789780946471
-0.5075159768634555
-0.33897280610048597
-0.4640210594475462
-0.23948513829929083
-0.4836785312867624
-0.35981918578218675
-0.6658453825323
-0.5719007630144105
-0.7031927201787108
-0.6779841383145162
-0.5423077523455254
-0.41316913526152993
-0.658067654474065
-0.6040874301538929
-0.593684907027555
-0.6681639504480686
-0.5783398299025017
-0.5123087866951714
-0.5167237276750827
-0.5364573771081904
-0.602535687791974
-0.5737985509111213
-0.5974589183853506
-0.538101176725186
-0.5784132860300103
-0.5429788440311368
-0.43087517304284767
-0.46631265112869197
-0.5647953565271314
-0.499849810002348
-0.545200941796482
-0.479600285348212
-0.4912235458624495
-0.5713698852713174
-0.5467943530981286
-0.6903077501758065
-0.539200663298328
-0.500514954625323
-0.4460281487910725
-0.4721164516466932
-0.5284482223338501
-0.51163446593009
-0.43282814069459435
-0.5585554666666664
-0.44552440951122274
-0.4486753026223909
-0.2803074150425759
-0.45732672249470946
-0.48179312872446284
-0.30198577711194213
-0.19862168248459766
-0.1757307461093511
-0.4923422375244009
-0.401435126614987
-0.6355620000000001
-0.5522000240714066
-0.6354695897668098
-0.6302164223279599
-0.4758438791021031
-0.4727765128056764
-0.5976374946989893
-0.619489600416308
-0.6558376488420182
-0.5186588626257365
-0.46814708958468904
-0.4523114446849699
-0.5694491961797024
-0.7007780133931191
-0.6028214244791666
-0.6299650272783632
-0.6780869648647715
-0.4728447972766521
-0.589546744069209
-0.6146855999999998
-0.5708255771853689
-0.5866399999999997
-0.48573743505398587
-0.5882546349406331
-0.45908630695175406
-0.40987857241537046
-0.5211039656953917
-0.5272208286836126
-0.45562735461565046
-0.40478776834883573
-0.2656705706587464
-0.46642827038644435
-0.48395704277743334
-0.4079095157773154
-0.15940781593686462
-0.21775025735662915
-0.47935304195081635
-0.2960471869532349
-0.036191486739414816
-0.18022940967012888
-0.5013797229974158
-0.48359
-0.5610097187261038
-0.5940619752633504
-0.5859978874086752
-0.4286785918931304
-0.44357323685122546
-0.6233097482638889
-0.6827693487509454
-0.5279019462170288
-0.4326175324252676
-0.4779746773915133
-0.6609996807266714
-0.7164815364744782
-0.7245810666666671
-0.5898304645105024
-0.6548535627195704
-0.5185574242922947
-0.5193974382773169
-0.409963842886764
-0.331865184797026
-0.5297266870451093
-0.4872328042642631