<?xml version="1.0" encoding="UTF-8"?>
<VTKFile type="UnstructuredGrid" version="0.1" byte_order="LittleEndian">
<UnstructuredGrid>
<Piece NumberOfPoints="1536" NumberOfCells="6750">
<PointData>
<DataArray type="Float64" Name="f" Format="ascii">
-0.6117859017918034
-0.68597
-0.6507814162406927
-0.7874767142000952
-0.7408435327670654
-0.8160293656096494
-0.7141569622880476
-0.7565692057291666
-0.7795526600663444
-0.7045094347785416
-0.6671100712957223
-0.6700872755313315
-0.6549788176989695
-0.6097136
-0.5900078825138985
-0.6397185283590866
-0.6598404277743336
-0.6167787341016097
-0.6998990809515889
-0.5865642436453813
-0.5976947835068807
-0.7307241443115501
-0.7329299276710075
-0.6840383623981264
-0.7740931499542293
-0.7702196302691876
-0.7584992847430466
-0.7582666069611594
-0.7847672500516634
-0.7352816331310926
-0.658021402983239
-0.7342237169767952
-0.6672495208836758
-0.578554682176705
-0.6078651396569541
-0.6201022976649094
-0.6798869791124416
-0.5812631122132672
-0.5205873630849495
-0.6792262246388399
-0.687180243859128
-0.5715597499604449
-0.739691825908301
-0.48805645381277124
-0.7886987452582254
-0.7046173781108162
-0.8732028655073624
-0.7792711532548048
-0.8033364439230416
-0.560607377979009
-0.7914895589611376
-0.7121872458104468
-0.8029504914919784
-0.6398345574934775
-0.6340857251202757
-0.7016604216204351
-0.6124236954875703
-0.6104482064955373
-0.5346685066336019
-0.5488771345073293
-0.7007980696279974
-0.537004393469725
-0.4460456450869463
-0.7025943281526273
-0.6368133327573543
-0.511845573640495
-0.5254705250829456
-0.7466460133143297
-0.701313482736781
-0.6463225011713184
-0.6123456855049393
-0.35592841289522636
-0.8660406062492497
-0.8124969459914234
-0.6956897953296134
-0.7761747648756495
-0.5929397926436458
-0.9130359588250424
-0.7281289453462558
-0.45856637298147085
-0.6231243030010488
-0.7588884239544457
-0.7322906321260177
-0.6279784284696391
-0.5665865547709138
-0.6343195474512114
-0.626940522885263
-0.5990789014925914
-0.502061199256045
-0.48870345733101866
-0.5937669499418031
-0.4892366666666669
-0.4139158476450288
-0.4798399245677564
-0.5336813715277778
-0.7412285975013541
-0.637077271410336
-0.7196345753988544
-0.5318699781049224
-0.6599118609216782
-0.46565301056676195
-0.6977975268855253
-0.8057424804365246
-0.6510837883289757
-0.6544717333333336
-0.5220471263837952
-0.4067933333333329
-0.812593753782656
-0.8474722869800476
-0.6536173410947813
-0.5420988530688159
-0.5473569791633345
-0.6915439656209176
-0.8068168268334333
-0.6484647583594593
-0.5057033918201165
-0.501423430669549
-0.6430545317118598
-0.6383722230950662
-0.6935164192708331
-0.5223271049045746
-0.5280318132485126
-0.7188298284769576
-0.5267967366492187
-0.6023483999999995
-0.5887786174829501
-0.4559318355481159
-0.47145799999999993
-0.38687250046500093
-0.3073580752641422
-0.48294532812499996
-0.6348188201292607
-0.36583235390691615
-0.5946199913205207
-0.550230313561667
-0.6887873579860474
-0.6172397039208918
-0.7069616631898614
-0.6035569084772501
-0.4915287826266474
-0.5991167199999999
-0.5278822689978714
-0.6355207781499659
-0.7921310604183689
-0.6637641304073312
-0.5233382753797512
-0.5452656168629882
-0.5554150124164875
-0.47262799999999994
-0.6952019605573194
-0.7666125195307897
-0.5868287638570101
-0.5003852124836757
-0.4828607088781203
-0.5731280576246776
-0.6368971175445393
-0.6476784591995046
-0.5402858015996033
-0.4254171331420154
-0.5073643962211437
-0.6225655950969382
-0.7172162005208332
-0.4875000658471474
-0.5200728967560148
-0.7852794110353382
-0.5326022825796858
-0.7171669600000001
-0.714312445133292
-0.4859629347138697
-0.5334660518702216
-0.4385569127899905
-0.28189999503505186
-0.4661878612615276
-0.49995800991940453
-0.2666721184980058
-0.5452802068390775
-0.3627776570953285
-0.6324456810673811
-0.35033461137974986
-0.5613780331886754
-0.38584530480248724
-0.6183473639106598
-0.6794272134324765
-0.6629961204105522
-0.6915696824156314
-0.6732264534944439
-0.46559335717074807
-0.40091230500258296
-0.5341969338784495
-0.5961596300659273
-0.6461214831850998
-0.7239668206533456
-0.6621852022147272
-0.4776006189570854
-0.46093004956248146
-0.6059664883317151
-0.4817403213473858
-0.6327126868162645
-0.636763392996338
-0.5341545254139267
-0.4974031071150265
-0.44995775245225994
-0.4790612974917701
-0.5182337598341747
-0.6645295308478599
-0.49932805342320924
-0.42989985501739264
-0.39390362384790323
-0.6478515422833855
-0.6620397773461714
-0.4211087344830479
-0.5754575980193016
-0.791829723408381
-0.5978873644023518
-0.7562690543500724
-0.6966689213633745
-0.6375616874702572
-0.6019649287042775
-0.5253374246308667
-0.5598430754288072
-0.4398439516730501
-0.556948062149387
-0.36704345403402244
-0.6305683522682061
-0.3436668673342378
-0.5646336257491217
-0.39157225280396907
-0.5905112345939242
-0.2680896281210705
-0.5465538633984544
-0.6691310602815924
-0.407506624969079
-0.4667922876870833
-0.30419203276610324
-0.5730528241835008
-0.7005999595744412
-0.7633123703244467
-0.6829500514569117
-0.7500585605138178
-0.7186892215285319
-0.5681800056221369
-0.3482705717379621
-0.436366383304114
-0.559909955901306
-0.6638054515015844
-0.6929628579370308
-0.6287687845863984
-0.5075836184748918
-0.45268319252349704
-0.5284475605119047
-0.4798875108493491
-0.6152079398313183
-0.5147632431991466
-0.5004863337461724
-0.5109130521150543
-0.48401527269540795
-0.33923528299235445
-0.47393243979378435
-0.5868286785103075
-0.4722775663892369
-0.34444776590401954
-0.322258558445961
-0.626321705525744
-0.6061449881187252
-0.33347894314419774
-0.5746242568249218
-0.7577130057030432
-0.5485650554482868
-0.7220544759247786
-0.5914974803816179
-0.7312471537145199
-0.6065039999999999
-0.5547415807551614
-0.6182380264825335
-0.6265673541666665
-0.7301544778509893
-0.6062890892746434
-0.48280386993594204
-0.6044826694075346
-0.7192211580905145
-0.6334187026057448
-0.6180212799999999
-0.34195325905794943
-0.5393124413583957
-0.6293858476269208
-0.5571717286755523
-0.38093985120892754
-0.3255175533800259
-0.49867302846662537
-0.7346660092168737
-0.7925453826548178
-0.4054385324126836
-0.3296249524507839
-0.4691565130438173
-0.7547609809897811
-0.8054889120452535
-0.7934002740235585
-0.5472484866531612
-0.7766510694786146
-0.7379884862906784
-0.6500579438797215
-0.42067989066336037
-0.3753033919876267
-0.4688831258858385
-0.5182018946807022
-0.6677712644746786
-0.5495792957957969
-0.5300290278432183
-0.4516671575385824
-0.40168695779732944
-0.5185940000000001
-0.5067162543615483
-0.4285775842036708
-0.3820195064820567
-0.5414037577637882
-0.3968576320068739
-0.1902236670551768
-0.4217421082364752
-0.4710086316708431
-0.5147171612623226
-0.17557234905865962
-0.26801300141356926
-0.562370655244859
-0.6112911119791667
-0.22717196557159017
-0.5081311092776685
-0.7161018226906385
-0.39832724278402204
-0.6736420800000001
-0.5448295995040298
-0.7567995931138531
-0.5689433333333331
-0.5471858038316074
-0.7868905863964314
-0.711697415347672
-0.6403691927083334
-0.7696593441762508
-0.7530377061376319
-0.6202091935373599
-0.7164479305003636
-0.5853687902459185
-0.5679372411100055
-0.5578045117946323
-0.833036556836323
-0.6518424000000004
-0.6798076725781717
-0.38672052283529684
-0.5673427798163063
-0.4621155590778377
-0.7274811506549078
-0.7306744444444445
-0.36321721263857976
-0.48802383576417846
-0.4190415967440558
-0.7559107641138413
-0.8357119488705642
-0.8587124447199835
-0.33650050209397836
-0.3598015369325511
-0.6428920395115791
-0.7956015538194445
-0.8427738760440323
-0.5926287146492111
-0.3560171156783682
-0.5852337789740111
-0.7112225837611722
-0.6045858397051735
-0.4762446758751809
-0.33759673921147687
-0.4645312533531729
-0.31581198852517106
-0.5234420438836818
-0.46000571990070344
-0.4255306222222231
-0.43529546541064895
-0.39599379713159594
-0.5720933333333336
-0.35930917337533597
-0.3391684805392883
-0.22843498588964697
-0.4266335627195715
-0.2195505594493595
-0.11440863077663423
-0.3545318656269594
-0.4597670164749717
-0.5780304056874783
-0.08640668889187596
-0.22486039420436862
-0.5536938466962168
-0.6537265060763893
-0.1294987737609428
-0.5081515615285088
-0.7038100950609633
-0.3742632352327107
-0.6628298666666668
-0.573001510642695
-0.7416666322910427
-0.5071274540194257
-0.5415180919261321
-0.6650832409139431
-0.5630576162430255
-0.6700364747050448
-0.6764016736228146
-0.7101786412481925
-0.8559147044024619
-0.7863771793122606
-0.7436089312661499
-0.8667043638667126
-0.8281659478808266
-0.7091
-0.7833807570215141
-0.8115760419120839
-0.7782810524901843
-0.7383306389009907
-0.6431400716186194
-0.7268349170573947
-0.7034981350090699
-0.8207897541350636
-0.7598503682436833
-0.896276790164554
-0.7155382763380861
-0.7292736522740585
-0.5854840216977025
-0.5892372292642253
-0.587811333333333
-0.6565857894277581
-0.5249326206986366
-0.7790982567510163
-0.7293313617624569
-0.5103858080098568
-0.3727027180464005
-0.6361105857491224
-0.5307582279662757
-0.6551531762324317
-0.7903089559592452
-0.7918473333333341
-0.3364969491372984
-0.4667397898795647
-0.5621435708931036
-0.8114307881944449
-0.8224263795647598
-0.7142496053909211
-0.3559919372036355
-0.39318326695819467
-0.6251910896879527
-0.7100173967013889
-0.6940222410525068
-0.3088085263500858
-0.3250317883860311
-0.33388386048537816
-0.584888855852394
-0.47617730564166133
-0.37931720000000096
-0.305237012369909
-0.5478763082370611
-0.2906448429287656
-0.36124559132904116
-0.3716802422005669
-0.253331466666667
-0.30599738623682665
-0.5038228940695557
-0.6907625501136588
-0.3535227783471537
-0.2754646924125268
-0.16737862649799717
-0.22438289729282954
-0.1829461218315389
-0.1195973177989037
-0.40532428841703516
-0.5564564146088048
-0.6863264766316091
-0.10030747321432454
-0.3328760973672252
-0.6214504415854093
-0.7221898225491011
-0.22324920253437822
-0.5916070658041762
-0.7345034980949497
-0.49410767249830473
-0.7008776304195078
-0.6405938847120293
-0.7854997444375565
-0.6901891960757252
-0.7336034996375478
-0.7645817676863959
-0.7266897547559985
-0.8693637087700524
-0.7859895415769679
-0.8606164037057584
-0.874674549270564
-0.821690062317643
-0.8891867279122797
-0.7934316145833334
-0.84564452726206
-0.7988251702810879
-0.7578926978714622
-0.6907577637941723
-0.7492114740907887
-0.7543353108898266
-0.7738022045731193
-0.5834772860723688
-0.6023887245911054
-0.7832539913724544
-0.8262229114809113
-0.755744557966522
-0.7379223369768263
-0.6306827121892836
-0.8217972736638258
-0.6021301214933353
-0.5815602335631119
-0.4933267327960324
-0.6062151999999997
-0.6746979556244947
-0.5751760465422394
-0.6498788500228119
-0.6621322790108156
-0.4799064193330276
-0.3427573098510623
-0.5942779836081834
-0.5417178682345191
-0.7082257368130538
-0.7212265939115879
-0.7627332806364951
-0.4580395295827569
-0.4530399862252514
-0.5576107421338462
-0.6542293296874996
-0.7400177204092128
-0.4655110118545008
-0.4044084270967084
-0.32640693462836734
-0.4373790478611283
-0.6049232470928474
-0.49674274483923186
-0.20895315747055185
-0.43636873837569906
-0.2762374144551077
-0.47164756194491647
-0.391391533561823
-0.19837696000000002
-0.23843543740923176
-0.7035473860580287
-0.4210507408710315
-0.3557608912385051
-0.340903894570837
-0.19839799681752457
-0.13216993403595773
-0.6652059630982646
-0.8753668629882209
-0.4793245695976421
-0.35730923074665727
-0.21299505685796427
-0.19803381031798908
-0.2761346222944285
-0.29209345259764413
-0.5491433812903419
-0.6712481340228735
-0.8248013028097975
-0.2801685400225768
-0.5309899099676249
-0.6886753857206126
-0.7697221701886691
-0.45303889249733226
-0.6661595004823616
-0.7544188649857076
-0.6215810879476615
-0.7580643373837571
-0.7181202892531967
-0.6950907987187432
-0.733308363556381
-0.725773286299802
-0.7914456386132541
-0.7287901801043825
-0.7545159900145165
-0.8210453043588628
-0.7608228865958279
-0.8052806304729591
-0.7953277131853794
-0.849663682016324
-0.6899573868567888
-0.783230184493063
-0.7715880189821328
-0.7993866081882249
-0.7588562607547774
-0.6283510880315147
-0.5086510911345319
-0.5583751262657567
-0.6179801792540313
-0.7278494958644468
-0.7373476245782712
-0.7307556288076046
-0.47362637011779357
-0.5343057887718173
-0.614910135865763
-0.7425737066370616
-0.7137409225124981
-0.6658037983240125
-0.5868379598697578
-0.6489261727737042
-0.6547567112664496
-0.5445534329353089
-0.5886600916154445
-0.46011384748915035
-0.6674617158503827
-0.6027486746593396
-0.6086072100373344
-0.5719278771139943
-0.6081390660467038
-0.42564375972540164
-0.4861123506365604
-0.579815588658814
-0.5193223647300703
-0.5627605624012465
-0.6896574858954717
-0.66725265585176
-0.6175551332320436
-0.4095089145553483
-0.39599597730121333
-0.5479490481547492
-0.6660672477142794
-0.31732462822897395
-0.41569453705173354
-0.22390614154164132
-0.34541247900018557
-0.5767007323951906
-0.420031904785338
-0.29315811014672505
-0.5869633702157177
-0.3757571966144886
-0.4736530209135203
-0.42061533127631345
-0.16551295184955614
-0.19292334674446596
-0.8850330571955561
-0.5660770606725601
-0.4612976826481994
-0.43785543218402617
-0.284681697099951
-0.13605885162797618
-0.8254277159198239
-0.8652844213680506
-0.5758488831316005
-0.5075039120492003
-0.3967942885720195
-0.32740855060345414
-0.4706262742277793
-0.5090199320520773
-0.6056221521800237
-0.7429119096319533
-0.7972910848896749
-0.5029293897350876
-0.6158422384889586
-0.7086031151004734
-0.7124141056121697
-0.6187683876540638
-0.7081947255871053
-0.698436525328856
-0.7047727503159283
-0.737313672452986
-0.7103711374094572
-0.5361116842322783
-0.6605590081573425
-0.6885207147265855
-0.7500797408281116
-0.6941226697260984
-0.565925110000583
-0.7579247336447906
-0.7223398543489696
-0.7450392894759083
-0.6376483999999999
-0.6685535542003657
-0.7514577472364157
-0.7194833532805709
-0.6797582184101006
-0.6522515342321992
-0.6204984253187784
-0.7156632057054882
-0.5550433583139763
-0.4666488402062701
-0.35004578838603007
-0.4269506666666673
-0.49795192838848495
-0.6339165781410842
-0.6641484342942653
-0.6970877873184569
-0.7074216102686344
-0.4051698919198185
-0.507871741335483
-0.5200866690085687
-0.6430271541375627
-0.6453362930626946
-0.6235610291306027
-0.5499166455635683
-0.6113474804548494
-0.5863157318208837
-0.5447590190972224
-0.556104754194685
-0.5195499635763845
-0.7374387805331679
-0.5986112588470912
-0.5437043902046952
-0.5443839873940899
-0.6372617122821521
-0.5078127629243571
-0.6813512946674191
-0.5651963200000001
-0.4391773474729435
-0.48300276030512396
-0.7322623106179819
-0.536223999999999
-0.6614627332093407
-0.3822160355527993
-0.3382576163907282
-0.5910652530699457
-0.5929665423357503
-0.30111224219880184
-0.4382533325400256
-0.24726019217477843
-0.4327855914656524
-0.5958354730902774
-0.427548822714039
-0.42065263595333197
-0.7421046642332593
-0.475768305816952
-0.5213556433369787
-0.5405248063649511
-0.3043719127505673
-0.2596413131031063
-0.8726502294642646
-0.6944572983828796
-0.5216339988527318
-0.5558197908162579
-0.4793978399999996
-0.306478932626736
-0.8148048647430327
-0.7020920775193805
-0.6149608309911868
-0.5367051282590202
-0.5847790690087497
-0.531039871047737
-0.6455764364497992
-0.5543155402470655
-0.5789592932566311
-0.7082766364104386
-0.6900502920126382
-0.5903908583608594
-0.6211274895652159
-0.6560410540723396
-0.680258802024117
-0.7172194807329876
-0.6775252315199598
-0.6672457399305706
-0.6906199382657477
-0.6839698962273904
-0.6762534440250485
-0.3361888888888895
-0.5530167307511268
-0.7009661896682249
-0.6793953144380542
-0.6756575483578335
-0.7006424798512089
-0.3336164283254122
-0.697450291932581
-0.7194600358660428
-0.6716539539546305
-0.6113211579969827
-0.43819276090101383
-0.7187181778490733
-0.6439559619601115
-0.6424231383083335
-0.4696829114142049
-0.5667600816101411
-0.6146965983738893
-0.46079179004672116
-0.37754601378122393
-0.36438333333333317
-0.3170972
-0.39284199488843424
-0.5917998996800741
-0.6674765278000616
-0.6641378092460727
-0.6586285531028732
-0.39147838500277304
-0.4860898772149545
-0.45762862268518506
-0.6474200173195382
-0.6561915730913467
-0.6088575743097319
-0.6009747290516348
-0.6659972445850498
-0.5459080788041609
-0.5270465255208338
-0.5426241416921562
-0.6316057856270085
-0.6847224000000001
-0.6701018354063583
-0.49823362862153137
-0.5090764591444512
-0.6368654666666665
-0.6323100331852879
-0.7163224199214716
-0.544964128
-0.42066979877650224
-0.5424714830161742
-0.6958863504743014
-0.40007333333333234
-0.6368819923124612
-0.42191517213037194
-0.44005637990770263
-0.6384973093749996
-0.48513046190092285
-0.3534859607038299
-0.49640830528356966
-0.4010601280729549
-0.5733997657780529
-0.5749041362847221
-0.45101534401782334
-0.5577528441552653
-0.7702760643488044
-0.5596759430950056
-0.5386693583871837
-0.6255339443411176
-0.5153115360000003
-0.4407550240134395
-0.7041586939330936
-0.7246132876354531
-0.5163386739553691
-0.5626956960690047
-0.655680933333334
-0.5470465740855549
-0.6943972281330469
-0.65402
-0.6141380756467804
-0.4655631684945653
-0.5937259656999531
-0.7074048722187786
-0.6529201596185492
-0.5103389054499456
-0.5581279455359808
-0.6711182253577399
-0.7028589323578647
-0.6404159374313253
-0.6294997356843838
-0.6379392356958405
-0.7338470442708332
-0.7520594551853385
-0.6498866031077103
-0.6743462306261625
-0.6658806528527653
-0.6414996
-0.6799012399256045
-0.19626466666666628
-0.39392431576162207
-0.7430601157076321
-0.6936634237126538
-0.6409166071938072
-0.6520617799951159
-0.1917231295722253
-0.5311793752827025
-0.8014981847761802
-0.6324751624975206
-0.5962987160157062
-0.28417338561686295
-0.6154322641165528
-0.7084691609288769
-0.5831489791330436
-0.3320610274850177
-0.5436214516653929
-0.6306371674669142
-0.4919214518362367
-0.31596440764857897
-0.396206
-0.27585903265137446
-0.34585910492487587
-0.47463324746956187
-0.7539210884887203
-0.6891803674440097
-0.6119463523235077
-0.445259622857671
-0.47512644128848974
-0.42225636458333277
-0.5666017641947546
-0.7378376220113831
-0.6598290390644516
-0.6846200785959438
-0.6287045549907012
-0.49816975552800163
-0.5091725422691392
-0.5582603621613349
-0.6424764352138865
-0.5192659999999992
-0.6586872256622572
-0.508859986260267
-0.49600376739544005
-0.59938792
-0.63079223024198
-0.66406807894193
-0.5441253018970863
-0.4791712263325733
-0.5843986423885569
-0.5521593876041079
-0.34432222635530746
-0.6249536226467454
-0.5293876389830737
-0.55109625562441
-0.6001133298611111
-0.41147957584560774
-0.46463534939753165
-0.6235102446727093
-0.5834602494151685
-0.6388273787972719
-0.5228566224790699
-0.4915214242779467
-0.6327009820209507
-0.6601075614319069
-0.5940084817527881
-0.5065301257584024
-0.5923798626165513
-0.6681704266666668
-0.6807155335332747
-0.6040825849918364
-0.6507908061825929
-0.493458275222526
-0.47382292743248894
-0.660141941475512
-0.7257262690638565
-0.6400402929092176
-0.6163542167240036
-0.4363349576536384
-0.4993575368458667
-0.7325633912862107
-0.6013120864633649
-0.5340911851075306
-0.6082680469223951
-0.696507622786617
-0.7047942284555574
-0.6866909701181126
-0.6863436673257849
-0.7686850962047362
-0.6643055058590123
-0.6695999851760899
-0.21575484948680893
-0.32764390936640164
-0.6412802188449865
-0.8071398982971445
-0.6011114131470824
-0.6160598901747237
-0.26191282109104336
-0.4561501442980818
-0.7852172328119092
-0.7211102223449913
-0.5136768833230007
-0.34765703008478793
-0.5430051074863441
-0.7599674222329894
-0.6304957772243941
-0.38303877101193334
-0.49135924833542494
-0.7028813281249998
-0.4949181967883937
-0.36206601184828546
-0.41874032961355667
-0.3374042041744158
-0.3979087494501743
-0.399356947135793
-0.6955804765465992
-0.7877008375923374
-0.5803572549302485
-0.48629872473651664
-0.49262088357918027
-0.4745994879745877
-0.4653001958335528
-0.7018519261004349
-0.7738376174977449
-0.678705727039949
-0.5478261613391203
-0.5251187370683609
-0.5134769928365235
-0.5494830968957262
-0.5679237090996757
-0.3915982727836335
-0.5942604388770616
-0.5130542226565193
-0.5202249413794356
-0.6034478644210242
-0.5828829083722143
-0.6510885236794658
-0.5906200712874555
-0.5311999251941019
-0.5937388475930162
-0.42270842597557473
-0.4361548067782603
-0.6895875557671206
-0.6487176906302955
-0.6079303944615293
-0.5073701237299381
-0.4469624282827756
-0.5702023235323527
-0.7942718013642508
-0.6794254774264661
-0.5815523180848623
-0.49576873382150016
-0.5242946835539631
-0.5906000672731732
-0.5760288727009714
-0.545170545331949
-0.4705807442641548
-0.5035128653677554
-0.6735367660425706
-0.8083833845542531
-0.5909598309913653
-0.49504156744649325
-0.43342866888852716
-0.5497290908038847
-0.7723133828089015
-0.6531286944011229
-0.516744276185816
-0.49462038989977813
-0.6498410900237487
-0.6101196326944792
-0.64561085176426
-0.7173826253435646
-0.7478692283885034
-0.766386466749328
-0.7678812054407339
-0.3559773234828127
-0.44673703054039865
-0.5637376095856905
-0.8326519742248238
-0.6631088987421738
-0.5231564396550961
-0.44256550909080045
-0.5831698954923022
-0.737466920731137
-0.8095406939184372
-0.5143082344286015
-0.54503676785487
-0.6091485416811686
-0.7357746774227499
-0.7401563060549696
-0.587750004655592
-0.4973095589183581
-0.7122549479166667
-0.4680548230254571
-0.5272251451953945
-0.47488691671832983
-0.4460803999999999
-0.4875951729319781
-0.5249868219274544
-0.5876893458919684
-0.8138543846800311
-0.6572696037982474
-0.5420097888682239
-0.5424767724967446
-0.5367838033372508
-0.548556400207911
-0.5903748025046499
-0.8274462314916002
-0.5955002090227842
-0.5863198801838467
-0.5592540526681612
-0.5338626510416665
-0.6138421531520261
-0.4926013533168317
-0.4081675976441413
-0.5328335762553512
-0.6056118475452092
-0.5514444137631743
-0.6163221218984636
-0.5970538800371056
-0.6829885593387505
-0.6615283200000003
-0.6103866590792008
-0.569125877773219
-0.42171014327225415
-0.5790230095749819
-0.7868897594544325
-0.7040595141144865
-0.5995699033809848
-0.4744766750345501
-0.5497204632007405
-0.5802021750089315
-0.8419895289875635
-0.6937642828087435
-0.5159429696200933
-0.5426840622161196
-0.5148727337960969
-0.5519509516429014
-0.5017105722657572
-0.5007738022851201
-0.5119900997319303
-0.6150019861376316
-0.8346496566643212
-0.5335994160765719
-0.536041694834175
-0.5277157590962319
-0.7459225723063806
-0.6453537817058318
-0.6161734097443538
-0.5962402682497515
-0.6447169428558538
-0.7523271146931183
-0.7383979902097381
-0.5160613333333338
-0.5723721911003706
-0.6918189134544837
-0.7839467341091786
-0.7516571129026702
-0.49879436226915896
-0.6069176085968168
-0.7127157408191533
-0.7832867479643916
-0.8231100402101784
-0.6325483999999993
-0.7280857470551768
-0.7200453371408098
-0.7158734657210301
-0.801856430254185
-0.7946576590204587
-0.590159242422427
-0.6700512762784578
-0.4971213956442518
-0.7120763741602073
-0.563394
-0.5837753333333339
-0.5821179107611552
-0.6202279811943202
-0.6690019079025986
-0.731616381169664
-0.7758448971665944
-0.5827094907063443
-0.6848198392130128
-0.5683931762152775
-0.6086850375007024
-0.605022150792596
-0.7172876401946784
-0.5463533455137802
-0.6052836919477825
-0.5557514348005785
-0.6746639956597229
-0.6814219624631721
-0.41693392634972604
-0.5024991264724122
-0.4615500271619338
-0.7094478810824311
-0.6610613021285393
-0.6143258666666663
-0.6117601742074036
-0.7004273697044835
-0.7222576266666665
-0.6906830255850944
-0.5224150737234156
-0.5261794190378647
-0.6213868316968131
-0.7900102860095061
-0.7300489311547804
-0.5891310832970705
-0.5612191396350513
-0.6043644804852392
-0.5368587104773715
-0.8307382777376039
-0.726970813699218
-0.5636192359663118
-0.6564437191416331
-0.46223426259206324
-0.5197999549047028
-0.6747457399026952
-0.6063395523207277
-0.8800161551510451
-0.634912161478082
-0.6591134928096456
-0.6918450473417633
-0.6965097313494525
-0.6102615092588053
-0.6181284288587235
-0.6380200000000007
-0.6343585508550977
-0.7685622162946651
-0.8122164185435143
-0.7500407312702841
-0.6255477495350271
-0.676878909554315
-0.7510900601218239
-0.7937943894297609
-0.835509126563018
-0.72829984
-0.7754381835089891
-0.7867838337051478
-0.7052416161983216
-0.8197898262646816
-0.8514097051732451
-0.6974681861510438
-0.6459015757280256
-0.5768470559861119
-0.7760966776916457
-0.6172433333333336
-0.6365333304401738
-0.702844169646117
-0.6028945446044939
-0.718995201019784
-0.7020102017806908
-0.7340143001295356
-0.46021433199968903
-0.762267776387731
-0.6802691782407408
-0.553209212345139
-0.6243283366391738
-0.5807064230285999
-0.5346738018714569
-0.5450861374002897
-0.6444450850726736
-0.809931178746254
-0.5530444413113448
-0.3782387659349374
-0.547598270594315
-0.43930736041505597
-0.6528753469556836
-0.786441077775287
-0.6657095555555553
-0.577244715795036
-0.6889316876765167
-0.7693413246373216
-0.7126281162776104
-0.5297944658551775
-0.5919895329919704
-0.5374466666666667
-0.7654995371551688
-0.7942024583635977
-0.61449872250431
-0.6824846387857982
-0.4995234484468967
-0.8938989173141288
-0.7230273125882305
-0.7103434742125265
-0.6248435937499998
-0.7267310115726388
-0.6878157861457358
-0.8270024688709546
-0.7049965333333333
-0.6573534324698391
-0.5779012647241165
-0.5833354756492393
-0.6834895017764082
-0.7047327343790362
-0.7987164745785919
-0.7467643343670827
-0.7158802467451953
-0.5114213980611756
-0.7288989693244295
-0.7307803917155855
-0.8117622140317108
-0.7693119405249019
-0.584242662970209
-0.7551383035533284
-0.6927839229330854
-0.8028810967156711
-0.7102639183188667
-0.7063638769790228
-0.6613611770833333
-0.6232203864674396
-0.7260317813439795
-0.688059367637941
-0.467596168629882
-0.6834813233724244
-0.6489991382615714
-0.6339186905930156
-0.695155648672158
-0.621172378086233
-0.3036383987944566
-0.5691204485492952
-0.756381096813039
-0.594855545688338
-0.5714947325232487
-0.5451128288991578
-0.529981503084632
-0.5758110359991738
-0.7681813907080567
-0.7143994166408345
-0.3832260891065839
-0.4344838328117842
-0.497964
-0.4843063408409078
-0.5487511049405266
-0.7900097936163815
-0.7529573854377617
-0.5809972518582555
-0.7071444716605421
-0.8065692934655925
-0.6856687534442382
-0.5799533095188333
-0.477129940479881
-0.8094197641481623
-0.7708651232548697
-0.653517708149229
-0.6018007890624999
-0.8267975410730278
-0.679039238687439
-0.6995596373217606
-0.68106928
-0.6852486076659731
-0.5987999578425294
-0.36883601777226627
-0.5740573710784246
-0.6653924337751106
-0.7012776628115334
-0.7521346748510175
-0.6824200172658164
-0.28703996859508546
-0.5724475829221661
-0.6597624967216954
-0.7365213383274459
-0.7620198681545779
-0.3939750176447255
-0.6172037366848482
-0.6581851914840832
-0.7556835840049597
-0.5790436141848752
-0.6454417222589653
-0.6788977907986112
-0.6781800737713065
-0.7122328856740526
-0.8283419311841289
-0.2721103428394289
-0.4554776116547076
-0.660439697615836
-0.6158575172369898
-0.6588931901549913
-0.6009166574898693
-0.3602232101378067
-0.3380031782086761
-0.6315302363110379
-0.690045199074909
-0.5950511237445754
-0.5837380413163765
-0.5832042081464576
-0.6795249199460653
-0.7514024249094234
-0.5466223004169136
-0.3902504190659351
-0.5012744895639597
-0.4623395313485708
-0.5220990800937547
-0.7092614864622232
-0.7724991544947301
-0.6497954712959244
-0.7376642076205328
-0.7489772169291168
-0.637506935405879
-0.524407577690434
-0.7398074282474721
-0.6438899716857045
-0.6091199450867208
-0.6054887836339017
-0.619320527133705
-0.5813834627696255
-0.2503965557622094
-0.36505992679148386
-0.6137740559842224
-0.6452777552147104
-0.7203685255028419
-0.6204754468786433
-0.2867771023448105
-0.41537857202884015
-0.5914326864436409
-0.6761695542913864
-0.7178678400000001
-0.4401491001939455
-0.5212917287971415
-0.6224904230441495
-0.7195494926637735
-0.5893610197638616
-0.6260971487803407
-0.7091306823169602
-0.7704339091706639
-0.6930602835321106
-0.8165867451952877
-0.3091569128682165
-0.2977623130752951
-0.5504282584718722
-0.6520219639251379
-0.6675369748708418
-0.6414603533031843
-0.5280979293242406
-0.32058261245400144
-0.483905922315754
-0.6800415831371294
-0.666992381948845
-0.6567867583784136
-0.6619730709423096
-0.7018382664808196
-0.638277221868936
-0.4828122963870048
-0.47659703610905674
-0.5320977939105337
-0.6235182820405268
-0.6667877654198514
-0.6728988634797561
-0.6402142766707734
-0.6018718890832045
-0.6184382907988113
-0.5120775567603671
-0.5887880673279604
-0.48473487249700814
-0.3133622787252364
-0.342244481266446
-0.549371548157067
-0.6453939514533311
-0.6965770701395347
-0.6028347588344699
-0.3765042541571941
-0.4794016647635448
-0.5756693090959536
-0.6656615888085556
-0.6891276
-0.5141284391979891
-0.5835312285796221
-0.6216633843102316
-0.7278215999204128
-0.6236436592164336
-0.6366386291827749
-0.7318670132161863
-0.745475365703932
-0.6435440869536421
-0.6787949281653753
-0.507654
-0.31682934378043437
-0.4948222700325589
-0.6719853160126554
-0.7043802785156558
-0.6809134830746953
-0.46157560493520994
-0.44184986348200184
-0.6075986272895685
-0.7056041010118501
-0.7176561122939721
-0.685494499509436
-0.6065604184755654
-0.5623445284740213
-0.5478201145833335
-0.6516405889646623
-0.5408337916554694
-0.565416765246275
-0.4520350244671183
-0.5742452799999999
-0.38437314817110985
-0.4762999999999998
-0.4197145208239774
-0.591538027229316
-0.6981776397037686
-0.710546410155215
-0.6200251539574294
-0.45132164083488313
-0.603040494147148
-0.6535823544159277
-0.7063147092383543
-0.7116547611489974
-0.533048006819591
-0.7101996553821158
-0.6517529882622024
-0.7441080501871994
-0.6707111768960534
-0.6835666115198152
-0.6882213603662944
-0.6771575442246246
-0.6913918873385015
-0.66584
-0.44986720131440266
-0.514510252440294
-0.6893846977866501
-0.7651074305592082
-0.7211777073011273
-0.5415803168402779
-0.5894404890733288
-0.6934098270692618
-0.7492633654735549
-0.6309549805744287
-0.5528525847061184
-0.6564449080388509
-0.5839430666666667
-0.46021411185259525
-0.3783988386030174
-0.48608358171948773
-0.6808001776584902
-0.7694151548409457
-0.7761087096873688
-0.6711461091524005
-0.6493194762102296
-0.7704219403147524
-0.7571473135789922
-0.7707834105393676
-0.820046866386697
-0.7320856724590357
-0.7155433460922803