<?xml version="1.0" encoding="UTF-8"?>
<VTKFile type="UnstructuredGrid" version="0.1" byte_order="LittleEndian">
<UnstructuredGrid>
<Piece NumberOfPoints="1536" NumberOfCells="6750">
<PointData>
<DataArray type="Float64" Name="f" Format="ascii">
-0.4786301915803836
-0.41476
-0.44624197385401226
-0.523899613532561
-0.448412511005022
-0.6144079718859434
-0.4958930700499682
-0.5413949479166666
-0.7031022148206888
-0.565226944814098
-0.6389906664600125
-0.7559891563764597
-0.5993634677826682
-0.6862527999999999
-0.7937544254283176
-0.5696222102771297
-0.6317278301301922
-0.787091318185034
-0.6181733822139106
-0.5796045422607972
-0.5583553314786843
-0.6251372380662764
-0.6492271471378378
-0.5340284893882491
-0.654032429070689
-0.48616663395014464
-0.7566234069679937
-0.6732305689119475
-0.4780854801405254
-0.8181609534336362
-0.6917496222172406
-0.516840575636551
-0.8142804809019685
-0.6898550005043359
-0.8108151714403801
-0.8313800780001352
-0.6104960721182141
-0.681407495350279
-0.7043779685661294
-0.7347720702518972
-0.6017217438044962
-0.6217371902163735
-0.7556236405881868
-0.700558605083695
-0.5728420757563929
-0.4657503940818728
-0.5164226906565705
-0.41531036850588965
-0.751756862634846
-0.7653630969198392
-0.5151037328284046
-0.49145304397507994
-0.7059112069610246
-0.7869774075545051
-0.5712665701754479
-0.6752988656972737
-0.7835280544237403
-0.6849065450571404
-0.7730491630502171
-0.779367584205208
-0.581976979386246
-0.7425118805538335
-0.7483878630377925
-0.6603654694050902
-0.602183644223317
-0.633826437915461
-0.7555302615562808
-0.6171575698468197
-0.5388416075084254
-0.4694311031097176
-0.773029395260647
-0.6335491113866495
-0.5609892931095805
-0.4318197946838527
-0.4149467269270514
-0.4402144074353947
-0.4522451135977098
-0.47812501402542845
-0.7535143874611347
-0.6637741481951069
-0.5552134630149187
-0.4460566572037426
-0.7016264136445151
-0.6760670589249882
-0.49711525424120856
-0.6402846193101763
-0.7104338274894245
-0.6214553104197356
-0.7073083222979949
-0.6785981531796245
-0.6188523938324747
-0.7452366666666668
-0.6943585204703746
-0.6329301147034646
-0.5876405381944444
-0.5342641224771808
-0.7296574269593118
-0.5060006154002553
-0.549615606471086
-0.5080653533787969
-0.646316304335883
-0.6787013862690645
-0.4565436009500184
-0.45162977319995773
-0.48619026666666626
-0.6956847906459234
-0.4877300000000008
-0.6048640496131822
-0.39361531960831425
-0.4722913296761034
-0.44429102500516626
-0.5548777096862247
-0.4075187487867549
-0.5076548467787455
-0.7010786317895215
-0.5176789790646252
-0.5069730454018756
-0.42244971721108543
-0.6807988703739034
-0.5719089973958339
-0.42066597003020695
-0.5992665745292594
-0.654174110353379
-0.5290661708395447
-0.6458914666666669
-0.5703199235379215
-0.6849593323275528
-0.748322
-0.6770785427490855
-0.6447160551563177
-0.5950729531250002
-0.5145594680119567
-0.5564025842638375
-0.5721273428394297
-0.5253790733639351
-0.6054151929302717
-0.6806667077696834
-0.5532282620688401
-0.5192228968167213
-0.5210873777423602
-0.5574276000000001
-0.5024572330722447
-0.6874068481636327
-0.4925549445679825
-0.5166537407561372
-0.5652172952321907
-0.46952535027898323
-0.576192428843529
-0.39544399999999996
-0.6442237488400284
-0.4294391965721443
-0.5529588254159387
-0.5669246203490939
-0.6002232492583649
-0.39591228898841524
-0.5707252907204373
-0.6349045025055156
-0.4106020157480313
-0.43794769068409684
-0.4484048652226414
-0.6708315709115173
-0.49735794531250005
-0.3755094946569146
-0.5926011117063118
-0.6271746590204588
-0.47815475071057817
-0.6516485599999999
-0.5601931332920026
-0.7414128087709507
-0.787047160570366
-0.7475105659045626
-0.6587877565007045
-0.6754410934163398
-0.600223878556175
-0.5783861641334878
-0.6226893589838942
-0.5934639331044326
-0.542078560335295
-0.5798171469318251
-0.5670741371357719
-0.592173626170233
-0.538338669552381
-0.6109888822259004
-0.5435739264310815
-0.5544785348531422
-0.5542834347249445
-0.6345130484061453
-0.6272295417876707
-0.47731362154493084
-0.45997133523467065
-0.5786739799060713
-0.4905381357982817
-0.5757305523688795
-0.6798944650547631
-0.587553468491375
-0.5008666535101706
-0.4308220500103332
-0.5984414534145323
-0.4574951008876211
-0.5750074939651967
-0.6558326586227378
-0.572663471598709
-0.4171237092669387
-0.6079183217824321
-0.5867037579691686
-0.400193296611425
-0.41088611454985274
-0.5187118318109801
-0.6876824716549694
-0.4532201421353521
-0.41755782466489294
-0.6639448801554138
-0.5993909871812216
-0.5457981340620776
-0.6933714207067575
-0.6339367378297872
-0.7869601996765522
-0.78992717916925
-0.8117403893653913
-0.6913318865468073
-0.7125977750694674
-0.7633840021706767
-0.6279946278788663
-0.6609276688123861
-0.649262097294915
-0.6154812016945642
-0.589460486631394
-0.559236014672453
-0.6200496449555909
-0.6196587650014126
-0.5685754982334457
-0.5961893481949864
-0.4884746960772969
-0.6490407420594728
-0.6501591405388933
-0.4918239881819608
-0.5019776823723915
-0.49764008286836153
-0.42447195717049674
-0.4687817437815743
-0.6938706877106178
-0.691682005703658
-0.5654096217577252
-0.5062094009583217
-0.49533986392125956
-0.3967997203063653
-0.511155758316832
-0.681400988344699
-0.6707117935344504
-0.5029477725575918
-0.5101645939243644
-0.5498590453762193
-0.46321350655009447
-0.5286410575886555
-0.6228715480025321
-0.5216731965222109
-0.48602101301921846
-0.6407652247685465
-0.5613632253122911
-0.4619112209390754
-0.4673058563321079
-0.6222231036081837
-0.6860093639391104
-0.46541499812854076
-0.5421595738171475
-0.7379274057859001
-0.5847422080076415
-0.6663419095552658
-0.7133835633395328
-0.6871545812458112
-0.8026430161509363
-0.7210260000000001
-0.7714323493086984
-0.7615683584297982
-0.7685453776041665
-0.7174047532997959
-0.7085623347799131
-0.6879360762077092
-0.667219895523857
-0.6714837842529447
-0.5774988526424157
-0.58574384
-0.6345657200864783
-0.6955417725254661
-0.6590896590204584
-0.5618258949500502
-0.5661706856788592
-0.6048299052852957
-0.6758936558334624
-0.5928639778849049
-0.5223992381346018
-0.5804327398225082
-0.6241012083766556
-0.6667617262278092
-0.5729591484767851
-0.37767520526591736
-0.46478790080595167
-0.5480750439141389
-0.3697183083606339
-0.33156160723203887
-0.5947394062200236
-0.6356932751394916
-0.6509515028017827
-0.5317670312532775
-0.5242422244326056
-0.38342519597282476
-0.43108004741496214
-0.5743136284631806
-0.6028318550009626
-0.5145570140850455
-0.4925959999999999
-0.5654992039105626
-0.5210418146586036
-0.5088881756285736
-0.5294235343098396
-0.513226741933832
-0.59132062016119
-0.66667875685744
-0.5424878204801621
-0.48141444640089287
-0.578675628977438
-0.6897627946616626
-0.6673371051388274
-0.48981950781250005
-0.6483666024900696
-0.7766471815003366
-0.5904593285802854
-0.7515485570044067
-0.71783736
-0.7175520781153132
-0.7500003629487256
-0.6811966666666667
-0.6693750294500586
-0.7285823368794678
-0.7238805104688789
-0.6793268749999993
-0.653048242477102
-0.6279541723496588
-0.7035302201079889
-0.683213152057952
-0.7515433453192811
-0.6947869743222165
-0.6181681313531123
-0.5648665570296393
-0.6043354666666667
-0.5699105476809888
-0.6380852738169044
-0.5596823501650973
-0.6529050357151059
-0.7135792067280033
-0.6725777777777769
-0.6498134170841624
-0.6029577711992361
-0.5977545429828672
-0.6619351305032457
-0.5377780166849213
-0.5005703740442246
-0.6924040805581892
-0.565978082702051
-0.6108327431174705
-0.4516333087384256
-0.3650165857437056
-0.5288634484562876
-0.5499320907343347
-0.46305864398537194
-0.3390546125964391
-0.4657987283874084
-0.5405556664600121
-0.5886666457660376
-0.5060173910761155
-0.5410199235355629
-0.4969923260744266
-0.47195541161199683
-0.4845128888888895
-0.5028785201991411
-0.500837326463873
-0.39435666666666613
-0.5730578150264782
-0.6259178524362153
-0.57658517048977
-0.47623211545085103
-0.582908849825894
-0.6811016244507363
-0.6708997706804903
-0.5199224028574848
-0.44283630541261054
-0.6659874138434959
-0.725102124765812
-0.6477610167385213
-0.513256076388889
-0.7078809468867028
-0.7966778275619483
-0.6215070820417443
-0.8132941724912127
-0.710236133333333
-0.7159795722256663
-0.6779078969557933
-0.7084001921884685
-0.640148154367009
-0.6263814330229127
-0.6761697117172969
-0.6540549628965965
-0.5497371058872551
-0.5451730646827849
-0.6103684704012696
-0.44457640943108984
-0.435954405167959
-0.5390374769172901
-0.39993158575415544
-0.40615
-0.475162570525141
-0.4665228912724497
-0.7179862535647866
-0.6276027598440592
-0.6249690445630555
-0.6283212805239435
-0.6534311469652913
-0.5919522322960753
-0.5813987254735785
-0.5312307792591521
-0.5569432367017982
-0.554153774410228
-0.6401141648467642
-0.6788522532107528
-0.8066959999999996
-0.6952379224577659
-0.5895884476061112
-0.521068737664835
-0.5426542585019388
-0.5717888304572779
-0.6303074481677015
-0.6168382950278984
-0.557832939732492
-0.6637013384625875
-0.7227876641659953
-0.6486073333333325
-0.7483891160788422
-0.5894159481435515
-0.6046275005825543
-0.6031222456597226
-0.5182052459958245
-0.5292553543928511
-0.6511595685038235
-0.5365454938220798
-0.5164402986154167
-0.4127253550347217
-0.4652798789995612
-0.5103490564695282
-0.5008744759247783
-0.49772492251090067
-0.48634108244625257
-0.4339971117999591
-0.4686350933333336
-0.515793122496692
-0.46540236475361846
-0.48956574878349296
-0.5631562726891152
-0.6128019877424739
-0.5036309333333336
-0.46823917503616447
-0.5048274944847576
-0.3041220768753879
-0.5105716149099978
-0.6908604724272851
-0.6940343681827854
-0.5326096040504239
-0.687981327420042
-0.7451383990775252
-0.6238364453838267
-0.5588674023708844
-0.3801055289050694
-0.7260595832683211
-0.7398933562967557
-0.6911866960126664
-0.5084053976318713
-0.7666903748060134
-0.823506227647922
-0.618740139581954
-0.8430850794552497
-0.6497554812977892
-0.6503667862686251
-0.6355403089481293
-0.5623220800922849
-0.6452450310869368
-0.5330810508121806
-0.5334270853255826
-0.6625452636792747
-0.4787664728238746
-0.5306010612926032
-0.6348731820884478
-0.45182018510055566
-0.5561281166857756
-0.5741303515625001
-0.5964935269953412
-0.47052230360448744
-0.5796298315767715
-0.641869194048357
-0.5584337790253694
-0.5280294909961148
-0.5860674157332955
-0.5206520084557001
-0.5993421299098626
-0.4923899070378693
-0.4556897225675462
-0.5013716110353378
-0.414880321851544
-0.4347997342192946
-0.4789703901877272
-0.5396876319350264
-0.5487799786069888
-0.7351031242680978
-0.8120151999999999
-0.7133259629503533
-0.5592388507242075
-0.5610131356517432
-0.5460304798649851
-0.44038562573368417
-0.6326781561425657
-0.6545563548667078
-0.5750678465257656
-0.644749508460178
-0.6979734461652924
-0.587962018323344
-0.7107756835283993
-0.5770205496394353
-0.573834239591836
-0.5206011854166666
-0.5245781911622059
-0.47894391087542587
-0.5582904901003716
-0.5179637282909694
-0.4263121075015501
-0.4745522467251942
-0.49042267296173964
-0.4105383471791694
-0.4951833612316597
-0.3973376256459418
-0.5804724295253311
-0.5248680994639302
-0.4564537439999998
-0.502436787404604
-0.4195207097187558
-0.49609022842962797
-0.47319466341832
-0.7275510979734215
-0.6213928380519408
-0.5268731967761935
-0.4982338300304772
-0.31094768133911965
-0.5367252421770066
-0.6289841211343128
-0.8101138173608801
-0.6661689134061827
-0.8006816771920023
-0.7447343746807192
-0.6662955076074103
-0.6202761325209744
-0.3592420536472503
-0.7696512539510617
-0.7987260710339611
-0.7581021533242986
-0.44842714284330426
-0.8258508946818709
-0.8155930707647828
-0.5042938593059184
-0.7844895399818058
-0.5131851585864846
-0.5604825602753356
-0.6237964331473442
-0.4934646097843758
-0.5017578349099557
-0.6302804465452161
-0.552044953462433
-0.48233344102542647
-0.5696246385376414
-0.6539306971432051
-0.5275705224781679
-0.5135650156998158
-0.6642516909169646
-0.6517326007439554
-0.5402810115511791
-0.5899663521093109
-0.7039609608227034
-0.7088424147777285
-0.5850626027265545
-0.6651331246125233
-0.5029116098367423
-0.5833617547915341
-0.4568571845264196
-0.39864772434856
-0.524204431411449
-0.48741121857133124
-0.49308179826686843
-0.5507874086833003
-0.40884857132828517
-0.30230038730123626
-0.4007228990288275
-0.2678264338101534
-0.36896752180867126
-0.5719532254765892
-0.529727199339567
-0.4921558544611142
-0.7969899351105593
-0.6896103287869387
-0.7169344217267004
-0.5250350249671368
-0.6069454411064167
-0.607518992725769
-0.34430790390214266
-0.5865635129643192
-0.6363757737218432
-0.5698163382023284
-0.5829423514971133
-0.6057326870717152
-0.4837010611696639
-0.5674837632769594
-0.5601727853551011
-0.49417014578638624
-0.47497170908998915
-0.5096074295024274
-0.36283745484604263
-0.5029309835745949
-0.49094874093821045
-0.439157231418188
-0.5614076619459977
-0.38655904530802254
-0.4144856137631745
-0.5190816621447427
-0.39773262722059677
-0.5114746028971423
-0.665848339366942
-0.5387946750402984
-0.5304717282269615
-0.4606494959938303
-0.5609975285346477
-0.4820193962506784
-0.7006265927040416
-0.7693486626437966
-0.6441522460755233
-0.5217477155833827
-0.42137433973961624
-0.6823785569219164
-0.647263248817119
-0.8382158780409177
-0.8008535991136112
-0.8728947240050909
-0.7739944529861549
-0.8343308745933201
-0.6165790492495558
-0.4413988116280949
-0.7923638822598523
-0.8908523880616434
-0.6957866401907625
-0.4433050268435285
-0.8207802075947613
-0.7033475455358018
-0.4075056144425195
-0.6892968925566204
-0.3909370663360194
-0.4687424778064458
-0.5552959592202242
-0.5829682135256657
-0.44800359094013004
-0.495046541168002
-0.5999256214160205
-0.5466522345702308
-0.593223536694189
-0.524815247226504
-0.6517060835072196
-0.6788600000000001
-0.5604893533739287
-0.594163938912308
-0.6636852799909309
-0.7454382312389632
-0.6046491562667985
-0.6320023650639253
-0.7896332548948539
-0.7287499051640259
-0.6400127601284352
-0.6453299999999995
-0.40171400000000007
-0.5647158101971161
-0.580962685707989
-0.3488950266002513
-0.39851258776917553
-0.49659343662137845
-0.5602507863194888
-0.40100805794944944
-0.6241226722020238
-0.5325244755609084
-0.2407781355486592
-0.34556040250645775
-0.16240145378992368
-0.42873132134649033
-0.6716596928410379
-0.5099425529513888
-0.513403985340156
-0.7077887846116527
-0.515173213473859
-0.6327915303814339
-0.5124813757033787
-0.623540395949576
-0.6188780625749115
-0.2987623281022365
-0.46976614345171264
-0.5961610133333332
-0.5426749764563391
-0.525656015835517
-0.5338932136603455
-0.37963466666666656
-0.44988481959082477
-0.5307721984294277
-0.4718013358716148
-0.5326678162221979
-0.4521206350879366
-0.37205957429220954
-0.47992700483414724
-0.5175563590504257
-0.5800994532806968
-0.5723968645833328
-0.40404802781620236
-0.5321889185454197
-0.5731497057550071
-0.5537749121073947
-0.531975269048789
-0.7304208904732384
-0.6826567675139485
-0.5872337296477853
-0.5329013444898155
-0.639137454594099
-0.685642753377095
-0.712651871983383
-0.8574736266666673
-0.7428982870139506
-0.5479360607024316
-0.46714139328165377
-0.7793582693558778
-0.8466249366546598
-0.8337033547978233
-0.8898128923331273
-0.8552484292084861
-0.8868656505948317
-0.8963035227905406
-0.5485153593073081
-0.4815150284924054
-0.7864646830841701
-0.8779429242132175
-0.5254759232244107
-0.48753203208979295
-0.7645553325356396
-0.5078523798215641
-0.45905757523769203
-0.5565563131270713
-0.42761088343152404
-0.44036501557980934
-0.47225555555555593
-0.6432082076417612
-0.5839056937910811
-0.44417973506589026
-0.6038556363282216
-0.6170828084314941
-0.4836715650616521
-0.7007277603126867
-0.5880218202816861
-0.6371765747225203
-0.7668763891871784
-0.511769101053937
-0.7041229307356907
-0.648966303986411
-0.7898928866414224
-0.5881551994213687
-0.6731797690942538
-0.7559567516047995
-0.6622620501619051
-0.5938793478036182
-0.5190066666666674
-0.4516672000000001
-0.5084344010443581
-0.7062980908751126
-0.4707113012652487
-0.3506560170065623
-0.5709035555813937
-0.569402969441497
-0.4206859950895901
-0.638219314236112
-0.6517106761875051
-0.2923490464683836
-0.29765874593283115
-0.1204930327979108
-0.47723569253128373
-0.7030502472962734
-0.5252853989583333
-0.516753118858969
-0.5093980942418418
-0.40271680000000004
-0.5360366812313336
-0.5107236307168558
-0.6437037942963424
-0.5908816888888886
-0.2772008546673478
-0.3790797161948059
-0.6007898560000003
-0.5254194560942019
-0.5398091254330825
-0.5156631253022504
-0.4082266666666668
-0.43852822988220724
-0.5189771949042831
-0.555051579308051
-0.619035203645833
-0.5050753129284035
-0.5334742210485751
-0.4954118019370784
-0.612738175647248
-0.7237977988840671
-0.632715311053241
-0.5994601576660847
-0.6199818875436289
-0.6013807135668505
-0.6896498909461211
-0.723609597856978
-0.775872199145829
-0.8072920159999996
-0.6501070161816527
-0.49102543772263824
-0.6422779293023183
-0.8489784941988282
-0.8448698391356175
-0.8731120888888885
-0.8040480404215747
-0.46836137242275194
-0.41277
-0.7007745704982473
-0.9765012239975269
-0.8567125680225858
-0.8865426816835437
-0.767144959795127
-0.933964844927586
-0.7099242575331765
-0.45828402479642866
-0.43052247752495504
-0.7520345966553847
-0.6596009091039149
-0.43010524900522945
-0.505386015625
-0.6131806166516255
-0.40622297907417493
-0.5793044327340359
-0.4364902842938343
-0.6012839999999998
-0.5457916738995661
-0.5005653333333334
-0.6097692484419445
-0.7369874021761635
-0.5003382001004849
-0.5902683260128155
-0.7590750375570978
-0.46402923289936
-0.7086012846113067
-0.7151910840308981
-0.6271129718443048
-0.782666512047944
-0.4431419342839429
-0.7608571621032426
-0.6766629970204646
-0.7599835948329771
-0.5144865629262246
-0.671583029393902
-0.6698166392661403
-0.5404456351912711
-0.4997464814470289
-0.40692
-0.5201421851622235
-0.5180759803666279
-0.7191210633214147
-0.5991927034434532
-0.36081527641543176
-0.5861046951809623
-0.42491621272328045
-0.459999223818974
-0.6559593428819447
-0.6709119343243004
-0.35577668136087426
-0.2281770101468981
-0.14155379707667823
-0.4864917763725294
-0.7499974228146314
-0.5210922025036916
-0.4502232173517536
-0.37899900020665395
-0.45116133333333397
-0.5092171305187557
-0.4883556612117667
-0.6210097146665721
-0.653781386666667
-0.29103716628058346
-0.44356873982227746
-0.6078550893077085
-0.5184295949219151
-0.596770350877419
-0.5883845405997481
-0.5874149259488857
-0.5009292004652737
-0.5403044414775101
-0.6538572894942495
-0.700577263020834
-0.6952058531217259
-0.6404301912307871
-0.5433274567320695
-0.7011530015375071
-0.793586757181236
-0.7812090302317961
-0.7305027845614664
-0.6187219177141269
-0.5627543358227961
-0.6891163850538771
-0.857623864084013
-0.8352025284574541
-0.8494528000000003
-0.6855681930599263
-0.4466635245003827
-0.5500335337059231
-0.8009026263848161
-0.9305982938553338
-0.8312097129709993
-0.8219138817937589
-0.40651937154430984
-0.5339237048937006
-0.8348645183596518
-0.8582683669421329
-0.7807456922984158
-0.6803111255041204
-0.75826998637204
-0.4686414692590617
-0.44658372908733673
-0.6279023049557635
-0.41479247666649127
-0.4991525024920805
-0.42966246081795195
-0.5155414563581121
-0.48984388842227555
-0.5635275935110561
-0.5755519354568581
-0.7955771871488494
-0.6014268583720367
-0.5703431355934826
-0.805449076131791
-0.4875520472852646
-0.6512696131989464
-0.8225789436702083
-0.6535483085132636
-0.7524620252944824
-0.43997910206286583
-0.7166044352581422
-0.714391939545651
-0.7050424911230265
-0.5260653494494204
-0.5928075618966537
-0.587759674479167
-0.4236469006138011
-0.5286639565770798
-0.4374366656333959
-0.4476388886133505
-0.5173982043692741
-0.7040435214462999
-0.6576980396043356
-0.3962346346298753
-0.516339890965244
-0.30186087910725395
-0.41690570642659425
-0.5995923563716961
-0.7023329919561143
-0.4129602540607562
-0.2016444767515613
-0.22703260218976598
-0.5700320862326934
-0.721181985462156
-0.4433877713790302
-0.40880925093666837
-0.42287860439484753
-0.6515203368464544
-0.5466228183929195
-0.46978857828160575
-0.5174165284797904
-0.7135971522628641
-0.4099419257182329
-0.583537245339614
-0.5607633399214719
-0.504997060726888
-0.6250333653499444
-0.7445768235808948
-0.7063968557553207
-0.5414171981877204
-0.5476155458813813
-0.6805394061219059
-0.7845593927566594
-0.7921565692098764
-0.6001943452555204
-0.5555514261641477
-0.7229065920782518
-0.8047805377893522
-0.8582982249111489
-0.6751490580459317
-0.6208855421361644
-0.5601800712957216
-0.6484140385329199
-0.8010386841133639
-0.8629387529090784
-0.8104280408348834
-0.6963344029715927
-0.5298730836921842
-0.6579995352432527
-0.8425697666526397
-0.7814896811324653
-0.7812848692244909
-0.5020377412930738
-0.5700222325242338
-0.7528105615951799
-0.6637482155871635
-0.5913012563471051
-0.4774675858193791
-0.4441828075109666
-0.4448696816514915
-0.4190301618102917
-0.450071192512351
-0.5527768936419374
-0.5140967896147313
-0.7806989960291707
-0.6950666144009451
-0.5622406202126662
-0.7558584738057067
-0.5192739091962262
-0.5664277548183952
-0.8210083548113851
-0.685912744899671
-0.7019193662326924
-0.4895023153198839
-0.6563867240664171
-0.6619839103482996
-0.6581043449059727
-0.6013218319674468
-0.5560744046349863
-0.5022777421875001
-0.40357855130047765
-0.6490512790092126
-0.546852398222773
-0.3503471999999999
-0.46104997734695646
-0.604163139103196
-0.6888445487337654
-0.46108488928842045
-0.4424655600779151
-0.3231289043879597
-0.3792605879595758
-0.44463931370871285
-0.6739456247726406
-0.4906126184252943
-0.27278053308537376
-0.3407458618001829
-0.6581005686051218
-0.538820249643182
-0.38013651822916655
-0.4101439859415911
-0.5876954619034612
-0.7965307470551767
-0.6148970874370859
-0.45052401245809587
-0.41775213267203953
-0.627671756079081
-0.5736928756795969
-0.6162098948672579
-0.4870413120000001
-0.48788117422169813
-0.6265570087859875
-0.8294937739946345
-0.6417796448990829
-0.5050478373217607
-0.5454763979610123
-0.6620612319159721
-0.8327860995177532
-0.6830448675646678
-0.5972023877530378
-0.559913822535104
-0.699061712746468
-0.8259212992283326
-0.776289147067697
-0.6285086109068927
-0.6804817482951024
-0.695771986492237
-0.6796577636583172
-0.8089987640012102
-0.7888190903657777
-0.686551920556778
-0.6251271817483918
-0.6388880470628459
-0.7133346636495138
-0.7329714374823437
-0.4685853718162527
-0.5438873514259192
-0.5649007814050954
-0.45148923049682804
-0.3913930337259765
-0.4352543974983943
-0.5106406666666673
-0.44282664892133466
-0.6702931136516243
-0.7161374502906166
-0.5578871093608951
-0.664123679527275
-0.5399104856375285
-0.49656536007098556
-0.7233776870947964
-0.6429888464149974
-0.6407908000000003
-0.4990369547427154
-0.635809939159099
-0.5708706262753717
-0.6065338419094853
-0.5457589510229389
-0.6236519697894046
-0.43925638710353593
-0.4906503599685043
-0.5942623855297157
-0.527956
-0.3264433333333332
-0.4315992134664271
-0.4166331290592156
-0.6503563448249373
-0.5011309489729285
-0.4180185550889543
-0.3717981926220208
-0.36479045867691723
-0.3429680729166665
-0.49270899541668295
-0.5530597288242731
-0.33989855335965663
-0.45351816823883095
-0.6003147965142189
-0.3756872047943787
-0.355537917534722
-0.3655843220961559
-0.7311013291741749
-0.7497330692291791
-0.7018705519650704
-0.3988558130622237
-0.38451014031824754
-0.49352893333333353
-0.6212048765741017
-0.5281384190948544
-0.46431487999999993
-0.47800240503048746
-0.6927937917517982
-0.754713459585035
-0.5920630339362615
-0.492318759661087
-0.5564768491056155
-0.7317995626355427
-0.7972002693816406
-0.5876219238128807
-0.7221081545773921
-0.5767306446322867
-0.7505201125711384
-0.8309267882438188
-0.6475720606194382
-0.7276214582482973
-0.6487471545725484
-0.6684637987263268
-0.766340037230833
-0.7160992604448424
-0.5019655474685366
-0.58311548889578
-0.656474903481054
-0.4190863453606121
-0.44394311975961914
-0.41215178755044474
-0.47365222222222264
-0.41845470201450213
-0.502623817321915
-0.6496568238447877
-0.5272805246677001
-0.5616057387890064
-0.5516632052076876
-0.4253467862312601
-0.6305453543023667
-0.5540296439033109
-0.61369416
-0.48862516532341377
-0.5280349993748868
-0.5720910143880412
-0.5511357624443854
-0.4097986915340626
-0.5860578640111513
-0.46610052088042225
-0.5154526399652798
-0.3979541746770017
-0.39184333333333266
-0.24757358421161466
-0.41361126142696736
-0.29118834497700985
-0.5178012827437447
-0.49641194791221294
-0.4137038146284944
-0.4409013055975907
-0.24603935881473168
-0.3145462022569443
-0.3161786994867725
-0.5501888630925472
-0.3643624566731973
-0.5367370072820695
-0.4669450381979752
-0.32438184507818396
-0.2831152885173421
-0.40035641083417123
-0.7654346022112472
-0.6645458623255818
-0.7664259920242232
-0.46577288630391683
-0.3788967775048438
-0.43534444444444437
-0.529838458907254
-0.4670125886891228
-0.4980526787848727
-0.5797900245294886
-0.8007710463544452
-0.6591461492049041
-0.7043300000000001
-0.5525725234766546
-0.6417775651521592
-0.8579463089244507
-0.7027723656618758
-0.6623352348771369
-0.6274075695851876
-0.8390060812862967
-0.7416124136435395
-0.5992899956597223
-0.5418754598057447
-0.6647828966449617
-0.7509598149845919
-0.48958013333333295
-0.5249189330461326
-0.4088190555899978
-0.3686856340841789
-0.4179571009664525
-0.3499722425806276
-0.5759951639562364
-0.48712321827344435
-0.5314049200247987
-0.5279531337208557
-0.36495313936340185
-0.5101791712746807
-0.5309375072696665
-0.6195692948956397
-0.5027034005952614
-0.3587149033085489
-0.563256580606966
-0.5385358675927162
-0.36174525727004214
-0.4214572482400259
-0.5050901848958332
-0.44000484985636584
-0.27803532037766
-0.2775745918578224
-0.2082092095474272
-0.31471821081578094
-0.26530539004826986
-0.3599596716699293
-0.517670622522573
-0.4034087936341481
-0.5837869811323052
-0.1851730758647817
-0.2718517602351271
-0.26659561019081873
-0.46943069453192804
-0.4515371460027329
-0.5210173514266639
-0.3984383144451335
-0.33710207080216903
-0.29622643861883907
-0.5937609037181368
-0.7325612037167869
-0.7105680000000002
-0.7710570805245426
-0.6849892274257425
-0.4473724269671903
-0.4831816906523378
-0.43941598982675073
-0.546806467230991
-0.5599659331432113
-0.7783309097179472
-0.8123444560693968
-0.6640064049848099
-0.6035643745659203
-0.7828365674048238
-0.8409732529220703
-0.6198448880208334
-0.7133205555850318
-0.7762049666717664
-0.6112644947303164
-0.5659781600000001
-0.6592063483940622
-0.4521965939243646
-0.2661773961562313
-0.407020053276037
-0.26720100710589284
-0.4907928338647031
-0.5027633485573939
-0.5677459626245325
-0.4499435202753705
-0.36994557718487914
-0.37390023329194894
-0.5380863344224812
-0.6291537757801198
-0.5070551347554296
-0.28601903628233916
-0.4882997025270052
-0.5577043558586485
-0.4087116969233235
-0.29918773796265447
-0.5092949739583333
-0.3468533797287479
-0.27619338513755387
-0.2600009299442034
-0.36896987621409494
-0.21869234209421148
-0.2968702102094707
-0.2878997553731712
-0.5217036744699323
-0.451112077732172
-0.6932242749498184
-0.3583580811123712
-0.2711390812051713
-0.3371567798568735
-0.40829868100847283
-0.5403116123470867
-0.4610877960815633
-0.47882013272866725
-0.40729763631943006
-0.48075257833326995
-0.7596088326276527
-0.7570872442653442
-0.756366939316793
-0.8259829804179923
-0.5981670506390722
-0.5743527570572432
-0.51430938071094
-0.6590393869363502
-0.6422361479148592
-0.843014284387369
-0.7217785329713121
-0.6384881298656159
-0.777904605002636
-0.6857670714444676
-0.6810442714591175
-0.6111905087414755
-0.5043517846050132
-0.31144235689192046
-0.3660566192323938
-0.2935379120640767
-0.41920717877592817
-0.5480462582987079
-0.6016191983601669
-0.4050949886344415
-0.4064573668005919
-0.3191710640020498
-0.5312573856247659
-0.6416906400000001
-0.5224814577402274
-0.3249154922736484
-0.4165299174809476
-0.5854010549700351
-0.5163073299843728
-0.26770619197874895
-0.4783033857906896
-0.3021891325250535
-0.3972583242772854
-0.37416697251498315
-0.5681079456330743
-0.255173390902736
-0.35935978199371577
-0.3512196510655643
-0.5010586741475512
-0.5464152197511499
-0.7591366067369294
-0.5956347614590812
-0.34987221438478766
-0.47989890561758825
-0.47546158700473856
-0.5556473940296865
-0.5011791720362112
-0.6541005860786506
-0.4976109776132662
-0.6738241059781432
-0.8161950781329689
-0.8084107340881594
-0.7068176211599869
-0.6317365387338986
-0.6983725148820819
-0.6990299697498558
-0.6802121706666671
-0.7303673220246175
-0.6421470930283181
-0.6176626294275679
-0.5248774373833085
-0.4724038115417733
-0.33200583727665767
-0.3987176788188853
-0.41313001862161
-0.5679750783944874
-0.6366944141351519
-0.5105517000477908
-0.44995871181452957
-0.3634915113468098
-0.506438740491348
-0.6407904000000001
-0.6208181675347743
-0.4422360540014227
-0.3681795139635629
-0.5704979283300454
-0.627158083809572
-0.37291058497707824
-0.40496195902594795
-0.39522739241546745
-0.5270400277933085
-0.4682139514211884
-0.684842
-0.4171315658797016
-0.4121321518170264
-0.5148806613231547
-0.512833874993745
-0.5950033056820312
-0.747918263004526
-0.4860599573549192
-0.5954569381612166
-0.6459915903845806
-0.5545113192747665
-0.6315266344351734
-0.7700874092505857
-0.5849587379014062
-0.7761945130208333
-0.7102503174209548
-0.6631123669664087
-0.8045080448176288
-0.6981320960234276
-0.6227348800000001
-0.5786099442033479
-0.63586
-0.42321398076280375
-0.518496236312174
-0.4801133452127875
-0.545443574074922
-0.6456530998140111
-0.6785802169869805
-0.5628538672622484
-0.48998271249658937
-0.4597899488197737
-0.58591858350899
-0.6969473837569745
-0.5904940070268406
-0.4233245291153899
-0.4625632462163241
-0.6028803616449673
-0.5228518438622126
-0.4194879288237501
-0.49238731247117246
-0.48648479069767486
-0.42363
-0.617351021762043
-0.4953989312926114
-0.6862985948974937
-0.5666854975798513
-0.5765198275640041
-0.6475647873263882
-0.6453545219483362
-0.7900887352399727
-0.5527554225234257
-0.7154434743998647
-0.7595724937968833
-0.6405820675759452
-0.6386712
-0.7640724749214222
-0.6584291320520771
-0.6015480905418595
-0.6353313467087692
-0.6059955414456303
-0.4913310152311438
-0.5965625522045452
-0.6646847652859037
-0.6423983297183683
-0.47344921253707284
-0.46689916602603826
-0.6373485256214836
-0.5578991931621401