<?xml version="1.0" encoding="UTF-8"?>
<VTKFile type="UnstructuredGrid" version="0.1" byte_order="LittleEndian">
<UnstructuredGrid>
<Piece NumberOfPoints="1536" NumberOfCells="6750">
<PointData>
<DataArray type="Float64" Name="f" Format="ascii">
-0.4711780649761301
-0.47862
-0.347925631675547
-0.5497180631161264
-0.3990548000496001
-0.5199014050130418
-0.20476867474573532
-0.27979546875
-0.4267040358983412
-0.17031408432005393
-0.20100955672659643
-0.3748691035596318
-0.19451937644408665
-0.20013039999999999
-0.36244463455886994
-0.19054792869245182
-0.23062510849349036
-0.35033961445365813
-0.47905378381765923
-0.5143294451332918
-0.441368110826624
-0.408206396318553
-0.5752526937383756
-0.35238011174802514
-0.2935361106470055
-0.339069077787074
-0.5707264656956799
-0.2902207393968064
-0.30878428344699266
-0.4939194589142793
-0.32038043932440785
-0.21284766442818953
-0.49031879717063026
-0.2888375705074505
-0.5158337618929529
-0.4835693604178537
-0.4615835619631357
-0.5606801642901427
-0.5431866214821703
-0.48072376237393466
-0.4396011596018266
-0.5084369321931829
-0.4471860405351962
-0.5947439553626782
-0.3698877771957972
-0.48150054696439243
-0.38448831904889486
-0.39625181239925605
-0.387554498338923
-0.5896340122246332
-0.3914676084510163
-0.2580429423154016
-0.4421719529365333
-0.46672188969182665
-0.3167515102721694
-0.49286028103257645
-0.41459157772461724
-0.4259704130566376
-0.47668525579665216
-0.5321742963575935
-0.46821346386793766
-0.6484771977681345
-0.616189432056699
-0.39690380496148364
-0.5158282290613995
-0.578201562801371
-0.5135957848395049
-0.4412416000951913
-0.508243082426366
-0.5130830997268909
-0.49111015283520193
-0.5855478569952469
-0.4343141996235504
-0.5106340547010754
-0.40965439346972504
-0.4718010127545262
-0.31237972768784145
-0.48677068386155103
-0.4315820309425942
-0.6249034994407499
-0.37361169662901156
-0.517350196876274
-0.4597977924503253
-0.4909589942045321
-0.44365229037946613
-0.5359601674534459
-0.36443697641104983
-0.5424507278018706
-0.4021067539574294
-0.5239021630731502
-0.5219424679398135
-0.7349399999999999
-0.7000642046417421
-0.5744684334544474
-0.6517576605902775
-0.3703253271149363
-0.41132332271972155
-0.5126796475963756
-0.6014664195367345
-0.5456671698698073
-0.5813907867592799
-0.49802096137631763
-0.5407197451711473
-0.5911599304236733
-0.42233399999999977
-0.5684948195332934
-0.5893299999999998
-0.5185049269941188
-0.5317241846934077
-0.5233991335713668
-0.3639968815871044
-0.4355466877106983
-0.5104054824986898
-0.5464341808092162
-0.46564050366411885
-0.6884189013578023
-0.45808356296674374
-0.5798285098174617
-0.4048245326703921
-0.6164504991319435
-0.5530720011927245
-0.46622640223134343
-0.4943269415168414
-0.5635123819546791
-0.48507973333333254
-0.5712386526141762
-0.590144391055448
-0.6828339999999999
-0.689114201500403
-0.6431158898062269
-0.691794671875
-0.413596302504395
-0.6961909090707183
-0.6174937929324241
-0.5706860517464096
-0.3519597522262737
-0.5233572390426166
-0.5589280083959559
-0.6173842624265364
-0.6689435138168386
-0.5078444
-0.6313623999559109
-0.5781718865392128
-0.604408397018089
-0.5714734607781478
-0.5648049839888126
-0.4520256069435834
-0.6411156449552654
-0.61043
-0.5455426370711117
-0.5504177384109424
-0.5007093731004902
-0.4755881759261567
-0.4592966112138657
-0.5211320547679287
-0.5003508328412689
-0.5465871306928344
-0.7362590801661603
-0.5215757011190226
-0.5057292818101745
-0.46000981408282365
-0.7390326223958333
-0.5297673431455955
-0.474605304973098
-0.6664986689398639
-0.5585812972970087
-0.6284230400000002
-0.6335287439553627
-0.5332448832537658
-0.5630447768133907
-0.617829392087118
-0.6042896950008845
-0.6953040846709353
-0.46801651856444226
-0.6987443790849036
-0.6823453573754373
-0.5946708662649681
-0.3662183335934131
-0.6936440528375075
-0.604186443521389
-0.6652577980436193
-0.5921599466826133
-0.4514589571153325
-0.5948164786112836
-0.5993777208659682
-0.633402596606635
-0.6205261750493402
-0.5891777809775349
-0.5286863851287338
-0.5991738602517201
-0.5982294441024982
-0.6116057732091246
-0.5323629084984874
-0.5132457399462708
-0.4883942388335489
-0.6559843060964679
-0.5917047334159947
-0.5229176910892726
-0.5440837664435191
-0.4602114185985507
-0.4529424036600999
-0.48375638004035765
-0.5115581950849593
-0.4471810843069122
-0.6555516315290112
-0.7179964076071111
-0.5241742136610467
-0.4173488507956192
-0.6305384786577671
-0.7610467175646977
-0.44456672257755775
-0.6094844985041431
-0.7339193641374387
-0.6060322333100664
-0.6923852052076874
-0.6196297949856422
-0.4267799750345815
-0.5078871058069849
-0.5626780350473287
-0.4029648782806366
-0.5013565694549716
-0.647232300894803
-0.6075758114162043
-0.6498619708225447
-0.49862034874690536
-0.4213134108286835
-0.6251164765954882
-0.6072290981194464
-0.5940326112617972
-0.5732678029785204
-0.4287376081718082
-0.5580952756506333
-0.5543437414928074
-0.5885278234718391
-0.6038543588981891
-0.5857172643295298
-0.5517127856995244
-0.5378367286629471
-0.581248446579782
-0.6069251646518904
-0.5168790015120485
-0.4937513396321565
-0.4689567426099837
-0.5537261114962143
-0.5662248690185437
-0.5406508612895121
-0.5532649050012245
-0.4311108743542054
-0.41594076622175186
-0.6513495266418908
-0.5382070903079152
-0.540136547096454
-0.4910850193288366
-0.5407041777316562
-0.4397609641946181
-0.5774163140728367
-0.46957851733829337
-0.5002091148078486
-0.7359620607479466
-0.6345378948851517
-0.47238722319506476
-0.4633186025790456
-0.7800272470669029
-0.6706856993053948
-0.468760947135712
-0.7530897758530392
-0.6740347581405198
-0.6635350223822433
-0.6489902691051875
-0.5180019408775345
-0.4057434999863731
-0.58584
-0.5403322737925474
-0.4448719365278127
-0.5046216328125002
-0.29774673158659853
-0.38583212275263484
-0.3627448808676785
-0.4990508949784034
-0.48259629200248
-0.49462513201966024
-0.5131052
-0.43500462912696664
-0.4383238849761628
-0.4688247606254737
-0.47279795959445187
-0.5573971952882827
-0.4411558927250466
-0.4512294774149486
-0.5334065096866408
-0.5385976716952534
-0.44818921730751726
-0.3892904261899163
-0.4052439763635818
-0.5235336540708028
-0.5561780173445996
-0.560349520148791
-0.4572198092468795
-0.5618193968323125
-0.5397910218569177
-0.4987896793623885
-0.34416758655920626
-0.33689931158595326
-0.5260993866522952
-0.5587688502744738
-0.5019415493419355
-0.5624401193053649
-0.5115603253840337
-0.3443911312687637
-0.6093421507581751
-0.5027660000000002
-0.6226225425108249
-0.44924568134257875
-0.6222126793690159
-0.5613510179659399
-0.6357816689601921
-0.44229266628642283
-0.6452472441788139
-0.7022350221793233
-0.5539957469154937
-0.46988991165972066
-0.6212564826795428
-0.7738572833938745
-0.5480695598958335
-0.5783323322964621
-0.7552097253092996
-0.5490915635461873
-0.6103678045086981
-0.5570868000000001
-0.44509199752014883
-0.4938883152499632
-0.7053766666666671
-0.6073725469650944
-0.2898611616752124
-0.44396372544884827
-0.4654852777777779
-0.3754479586534512
-0.3890639160983675
-0.30892630173581553
-0.2861536418573923
-0.4551743186608806
-0.2817854599862908
-0.3066474100312346
-0.3323317636660972
-0.43325493333333315
-0.37337796481699564
-0.5255343769373836
-0.2775175746968195
-0.2590521207647593
-0.3947318513659585
-0.5625188888888883
-0.4527816459557676
-0.2768314975174259
-0.21450786478347353
-0.3285082334870318
-0.5050473776703109
-0.6284914660053733
-0.30915687545055975
-0.18149157143393516
-0.31220794274382785
-0.4589961805555565
-0.5867584021475132
-0.4753745760563926
-0.4049218610729648
-0.5482450412739327
-0.5225092102572634
-0.512907796032239
-0.3442323898987398
-0.20746295461207295
-0.4834999550292431
-0.5436325924800175
-0.5417974168854053
-0.5274473750900514
-0.6233392444444449
-0.4172097314785957
-0.5082554939238407
-0.5087333333333334
-0.6661656801272892
-0.513858195958535
-0.6005727422029351
-0.6829674753737
-0.6254296029357981
-0.5130167640077071
-0.7329467161225374
-0.5568572883245264
-0.5197663940727881
-0.5228404813506351
-0.7011604731586352
-0.6254688104229813
-0.4851154383680552
-0.5890356798713661
-0.640310606333106
-0.47933873527588317
-0.5167689113374526
-0.5444752
-0.5439502872494324
-0.5676184142434948
-0.7254175883446994
-0.6926025391586386
-0.5641133364408983
-0.6597475139491629
-0.6870388332800905
-0.561779077748219
-0.564032285596197
-0.6225612669533146
-0.5844234710212499
-0.49624891266149895
-0.5350267334596089
-0.5881906545041541
-0.48459
-0.44606450926901864
-0.5739767160600989
-0.3926723335399878
-0.511923638988503
-0.6104000552504164
-0.2761521607647844
-0.3460661052491252
-0.3824317796182986
-0.5309906648694266
-0.3065510004619449
-0.5212506112006602
-0.23623324888062316
-0.24485084715594882
-0.3764294280511113
-0.5514239999999994
-0.25943898906127943
-0.167368394378563
-0.1650154653558796
-0.356434144270155
-0.5597210665320399
-0.45878199285392274
-0.22456960035544601
-0.08767885285057558
-0.1474289512973561
-0.3946346473226275
-0.686384
-0.3596573237781682
-0.0803197376443452
-0.10337789903208529
-0.2831066171874997
-0.5821338326409987
-0.6066527352763533
-0.16462470082202257
-0.13720363360167417
-0.31370165364744745
-0.4913227317708339
-0.6064247846048842
-0.33606429145740263
-0.3839077927257703
-0.4889974449482248
-0.5498264832477541
-0.5188663318867538
-0.42886322666666615
-0.23553113343890816
-0.47114635742382577
-0.48170683981284595
-0.5798363005635284
-0.5338444170863516
-0.629882053333334
-0.5454563537921053
-0.43858109693031594
-0.4827820252118209
-0.5956887647787403
-0.6117099376644357
-0.5809900117171566
-0.6912242091341189
-0.5951811988361352
-0.5826205441530998
-0.6695366894883192
-0.4428956437283069
-0.4694396952952084
-0.5098988077836523
-0.6386227270262453
-0.4990726556744764
-0.47519943615674715
-0.521399860315168
-0.5747596900903137
-0.5035941446294165
-0.5616763754677973
-0.5973637088654676
-0.6683227373721491
-0.46034305779431056
-0.6042955827259849
-0.7199651062372457
-0.43798218782917014
-0.6589383363917598
-0.7100533467066626
-0.4587109656349843
-0.7037328696299032
-0.5856953313940039
-0.5484584132647405
-0.6834008774420416
-0.37701851562500005
-0.5852883065072378
-0.5843176647752727
-0.5889577691671832
-0.3910982690638561
-0.42513872067179476
-0.5602850707846668
-0.6897101878577613
-0.39943597952884297
-0.33377012442529286
-0.2821044859362987
-0.5016219335728601
-0.6564643096094233
-0.506355209187642
-0.6743830213078102
-0.18818413250913843
-0.1917263620776503
-0.2817603743656593
-0.4844244310119165
-0.6918556000000001
-0.28264061070361274
-0.12498084789516146
-0.0863782011824647
-0.25002291313632347
-0.5381824068247835
-0.3904668581267851
-0.11809923882951019
-0.02188816707904763
-0.13812424045138819
-0.5145933741955487
-0.7739621526486181
-0.25753539776206097
-0.031469780706253274
-0.14479782124104681
-0.3729363640625001
-0.681815912541481
-0.4379003579152429
-0.14864457856807833
-0.24629501071846668
-0.3745362616243025
-0.5629104942871398
-0.5140526035565108
-0.2774059820210787
-0.4287017941034656
-0.4308585451253084
-0.5385957995737946
-0.5299569719750726
-0.4735543199999999
-0.36980070282992367
-0.4780943296262112
-0.44702016713735643
-0.5624637628496975
-0.5611417652258622
-0.58354445711924
-0.5871753510229386
-0.43437282296199337
-0.454341714197148
-0.5106601931037923
-0.6064519288022882
-0.5640348491097319
-0.626718803023165
-0.5156158625168177
-0.536416738822071
-0.5668544246669817
-0.44806026146862327
-0.45371393432357215
-0.44406219130445473
-0.5703925009437215
-0.48903943203522177
-0.5129337197203064
-0.5297472840910258
-0.5606180379214916
-0.5562109234572707
-0.6065363351856646
-0.5753312399256043
-0.5804803972489486
-0.46161117276296765
-0.4893215704690432
-0.7115403981336601
-0.6945429281061589
-0.42985519569249503
-0.573103232658219
-0.7935151792303791
-0.5460011619016046
-0.4508431891301648
-0.7063265056364414
-0.7419231151752679
-0.2982486701797891
-0.5497130944019889
-0.7268242799249456
-0.5368668924238112
-0.6319680663035143
-0.5927726710977186
-0.6014383694978301
-0.5395041132465392
-0.4371139912340871
-0.4355705695719239
-0.6918806732764842
-0.6469733883446988
-0.518070557966521
-0.4422301141604356
-0.3062121153916533
-0.3664503903141441
-0.6746822887488194
-0.6825419241683893
-0.6895613734222489
-0.3801683966861685
-0.20532706482141005
-0.25755553271057247
-0.32992832207883876
-0.6145232434387268
-0.8750074085554873
-0.40082163902288825
-0.1599810368662592
-0.11611159283584906
-0.2368477637528421
-0.43852467945357715
-0.35597143168487827
-0.10392288914238491
-0.10674146513824838
-0.2612891533928971
-0.705843483356645
-0.6857740132258731
-0.21573816747502703
-0.15539665995453544
-0.2801935418645289
-0.5254655284819633
-0.6326605190917571
-0.2968883752841504
-0.2647357089941066
-0.36626979482537686
-0.44054043005553817
-0.5517267343764355
-0.41014021080880153
-0.3418256509609428
-0.48649366003241984
-0.42498105976758166
-0.49636582924975886
-0.5223713077369462
-0.45126401586278136
-0.45834226676003836
-0.47266012980210914
-0.47817949977345425
-0.5333790292738686
-0.5220191112440543
-0.5274346342081705
-0.5243007009423197
-0.46966898091604564
-0.46622231452779506
-0.5259576011653753
-0.5509534092935097
-0.46914741611076666
-0.5247475066259415
-0.41409665668474044
-0.47163381177929314
-0.5485334277736645
-0.5251122531689885
-0.487843961046087
-0.4315761061365044
-0.5300948936047406
-0.540178993873679
-0.5306206783197609
-0.5092721878548703
-0.4982557253565218
-0.5286490057450652
-0.462856361716342
-0.4455878975821443
-0.3517741267774593
-0.5862414396913971
-0.4759529453219808
-0.6015612235578298
-0.7689020794842208
-0.490226004878554
-0.5105537342797674
-0.5439714137611508
-0.7641166540854817
-0.6977759199031524
-0.2724148
-0.47020633478285995
-0.6931938074293131
-0.7627717685144938
-0.47758555540720776
-0.4885291434056765
-0.7396995568271354
-0.5834293240602613
-0.648685235456714
-0.5206260477201541
-0.5662134242612107
-0.6597013333333334
-0.5620799672923197
-0.43921548124673504
-0.5665852121384223
-0.7123311066510154
-0.5166328321528417
-0.5809363728042986
-0.5287523045859425
-0.45075568302285146
-0.3819359638495172
-0.5576980274721421
-0.7355391211833439
-0.5830092240800899
-0.3854163440438399
-0.3430433667518369
-0.3498569635416661
-0.39609263844843556
-0.8222270679420429
-0.8842626131432122
-0.6402364463236175
-0.27883808515958636
-0.21824347633808563
-0.31741716310532636
-0.4323353793865196
-0.3728579014261288
-0.18724610666666605
-0.28583244340145725
-0.4852311490770998
-0.7319474394807237
-0.4971999999999988
-0.2735896152097536
-0.326368807406489
-0.42402733422169575
-0.5627474414363877
-0.4940918541343747
-0.2907263649514366
-0.37121130912659867
-0.4047365640718768
-0.45752953579321115
-0.4763662161458336
-0.37021469386542966
-0.4099665983650607
-0.46839074619134163
-0.46854148183388483
-0.4610768875239301
-0.470020652200868
-0.4198386605827651
-0.4346701509731575
-0.4505863257088851
-0.4859845044161109
-0.572945467955693
-0.45445316129547025
-0.45876066666666665
-0.44897859262768297
-0.4764565848800692
-0.43916928475452227
-0.5619001525943078
-0.5682350125198444
-0.3768502010057171
-0.45414732217400283
-0.37602414603294926
-0.46439823986749035
-0.5621016204045796
-0.5338650787253344
-0.4229597845983686
-0.41223174945929514
-0.4595227554442509
-0.523396714815627
-0.3927361588259051
-0.36726783008755376
-0.3878645138560693
-0.3511357939560846
-0.2551262384964294
-0.2806447644857889
-0.2008964277762564
-0.6997744444444439
-0.5595418071848569
-0.5632687388266439
-0.7293530870267674
-0.6157885966628472
-0.3000573837569745
-0.6039446049459257
-0.5507346265127251
-0.7086442847216502
-0.7322171352938053
-0.43546485113770306
-0.4932041837156434
-0.6285635674512556
-0.7080696931111921
-0.5635918884830542
-0.4187679864985876
-0.6978266050969903
-0.5381097249237962
-0.6634111210051642
-0.44318977743324695
-0.5422966666666665
-0.6422195999999999
-0.6697731080662165
-0.5691659171372104
-0.5379600701466002
-0.6979978423264721
-0.6163996905170438
-0.6991225455668616
-0.5279054468844938
-0.5808429152199078
-0.5455395265450212
-0.5389536240283822
-0.724196669058424
-0.5562568288023914
-0.5330292625761074
-0.45750666287800595
-0.42328084010416656
-0.5805429440363832
-0.882352335468889
-0.692526
-0.7331320998145484
-0.4995144335011295
-0.35288488257904516
-0.3813906666666676
-0.530899661350775
-0.4063282682372398
-0.30917542400000014
-0.4779403688220592
-0.5887816697899612
-0.5779372191952384
-0.3953488888888879
-0.3342487268443893
-0.43021335365279073
-0.49342005507517844
-0.4706006630208334
-0.4030601716714539
-0.3374831123422391
-0.3922960230104228
-0.4215052083570489
-0.4354595356478612
-0.40771041232638866
-0.4046379619432338
-0.4152423783375849
-0.4148339672955847
-0.4851239905119476
-0.49896837838057984
-0.39661192705104376
-0.45156395200000016
-0.4183279634162584
-0.4220225127588619
-0.4431386010790312
-0.5972753037323547
-0.4739823320730599
-0.3996634666666663
-0.48971758388096726
-0.3851285223398673
-0.44191
-0.523897582637872
-0.587849341911275
-0.37356094248329547
-0.4497724192326232
-0.35721718476099035
-0.44778046937668187
-0.5229938995231264
-0.3652256754865942
-0.36411301630603266
-0.3328195641642288
-0.37946720073197576
-0.3478219245844423
-0.2597891145833333
-0.2290853079708293
-0.25794452622825287
-0.19108669869807815
-0.14256284169442693
-0.1841404
-0.19467053936763795
-0.6805713333333331
-0.6586585702472868
-0.599647866228782
-0.6599912185573887
-0.7005566966834226
-0.4258926516572817
-0.631336769167184
-0.5925722306576039
-0.6579075290186505
-0.629317703338288
-0.5703658900185989
-0.5286434035957842
-0.5948690843436496
-0.6735096656229568
-0.46116824696197073
-0.4477730231452775
-0.669763542882153
-0.5521261346987586
-0.700379616219232
-0.48409372072351403
-0.5790860000000001
-0.6143657945856581
-0.6441192411598157
-0.6984489792812947
-0.6171227500550512
-0.6564760281399447
-0.7119683041158583
-0.7444143171821015
-0.5637667214263065
-0.5965288194444454
-0.6643467913647286
-0.6401543678616366
-0.6918144597107357
-0.6408208672701771
-0.6154566658676024
-0.4933724810911356
-0.5356109981075535
-0.6759532570821647
-0.7316882436453812
-0.5387446666666662
-0.6114914119336669
-0.6243863038418683
-0.5062049939017784
-0.39787221333333395
-0.6017052766683816
-0.4053766509609429
-0.4257095861624307
-0.5929693355422185
-0.5241239305525962
-0.457155791266249
-0.3903425914445126
-0.37011050269002904
-0.5115865342018223
-0.5117374600910002
-0.3838224062499995
-0.4123988550466093
-0.4034673626328856
-0.45352322741783896
-0.5211964821492051
-0.3876143072948956
-0.4278935584447687
-0.465848094027365
-0.4368563054179037
-0.4264029967235415
-0.4740276242153496
-0.5400446574115348
-0.39869306922777
-0.47166418666666665
-0.5495073747505386
-0.45013407650815307
-0.4074740416662508
-0.5415044264981481
-0.5050789388873741
-0.38151369260866547
-0.5662525315147758
-0.32988950304016995
-0.4225022240991125
-0.522996984216204
-0.3766062274312077
-0.4190819622016999
-0.29592606184402964
-0.38691286869044306
-0.418807809493338
-0.20874771656234334
-0.2539045657748765
-0.3099435623965016
-0.17918924814599643
-0.15825131340483647
-0.18226288885031147
-0.15366862031414916
-0.603490397120617
-0.6632197041674401
-0.6814601162497523
-0.6275577101960796
-0.6337160302763434
-0.5561096681046623
-0.594852003506503
-0.6231498001048353
-0.680861121004325
-0.563722435725836
-0.5039695149411035
-0.5167155954868267
-0.6242774565716682
-0.7154294556596317
-0.4093856454371369
-0.4402914269113091
-0.7018407247291187
-0.661963953993055
-0.7469486758013515
-0.473871356888715
-0.565135497003513
-0.5889134052490188
-0.5717240029588241
-0.7065432463641756
-0.7056547684841218
-0.6403127638495024
-0.6916932982115965
-0.6647877129572229
-0.5797102289654333
-0.5783373362623706
-0.6488332632748454
-0.7165971308121507
-0.6746546206311347
-0.7323995826006583
-0.5725825996941508
-0.5373122309080868
-0.6082547338941517
-0.6170690074297268
-0.6053827464352137
-0.4829830175656129
-0.5229960319142061
-0.6084719701562178
-0.6320150663643975
-0.45606898000964496
-0.5852506658836083
-0.4388112088264657
-0.5687195706798919
-0.6501625291005841
-0.4643666547809075
-0.4487674437030867
-0.45002765860714994
-0.5003693904680484
-0.6507729435337876
-0.48852151683431616
-0.3987368695511078
-0.48366768225413087
-0.518986642571523
-0.6404132032574755
-0.5664591127918998
-0.3864913144329875
-0.4906052248387667
-0.499418907288836
-0.5147535867715635
-0.500504630088861
-0.5027607725581257
-0.4844527141661297
-0.4444066569777459
-0.45394163356065315
-0.6535999762364678
-0.42656842483502216
-0.49629924450827706
-0.42028118094801026
-0.376996741558173
-0.5364387174175215
-0.3567130849257541
-0.4536918695145709
-0.300249507268793
-0.3326540727757403
-0.21904489373193844
-0.33578562758410935
-0.34328474469902254
-0.20097956418797838
-0.29015062417854887
-0.1728054116942484
-0.5392291733829307
-0.5806640343022947
-0.7251711276582519
-0.6743703465485082
-0.541048360889368
-0.5689152189510289
-0.5588015532863304
-0.5620175138595976
-0.7321775842560122
-0.6297964244085924
-0.41549551179995875
-0.490705593314587
-0.5717405489708476
-0.765514015253284
-0.5333715127092367
-0.3593295268456447
-0.6542665264569757
-0.7596952708333334
-0.717542217664164
-0.3550806356787795
-0.4863584438933669
-0.5584135999999998
-0.5144726873314186
-0.6354929139246542
-0.7222358742109697
-0.6779797081903971
-0.5986251484115882
-0.6042598660191498
-0.5520496075392152
-0.57817268227014
-0.616028205023463
-0.70385985316801
-0.7144499951611979
-0.753141602787565
-0.5710427408572306
-0.632165961057863
-0.6023159604166665
-0.5975644452940898
-0.550711163111415
-0.48147218970861755
-0.5236530938736513
-0.6041597053297602
-0.6993149319280842
-0.6151730831852302
-0.6080203044519303
-0.6015541392145106
-0.7330009759999997
-0.6617967759935635
-0.47477084550360965
-0.5129769557671972
-0.5469258465936495
-0.7161676734035957
-0.7133493498932281
-0.4641013454227056
-0.4971865833817682
-0.5072698504587289
-0.6531506866517897
-0.7537706372928908
-0.5207181901674082
-0.4790081663771843
-0.4521387132036108
-0.5662615034781328
-0.5725050619962803
-0.5422154467500999
-0.47322814067203156
-0.3807304557078914
-0.49287050898946044
-0.6032425833906715
-0.5026814225603494
-0.3673507117074693
-0.30101737088930114
-0.47928172623242116
-0.4617333496027127
-0.25487420565250124
-0.24261669011075734
-0.18888287210589463
-0.3598134257904526
-0.21419687447463634
-0.5128393333333332
-0.5195443640490125
-0.6702680627264356
-0.7193108157319119
-0.5743759357795003
-0.5174826149849069
-0.5579276474478193
-0.5047446661002654
-0.6754519412797569
-0.6925384388620883
-0.49278319999999926
-0.5101668307501548
-0.469495480759115
-0.7016620119196264
-0.6682260167389957
-0.3238451985947499
-0.5265539997515757
-0.7450240295079688
-0.6162285383195943
-0.2867060500258396
-0.447928
-0.5687753333333333
-0.4843845541157747
-0.6088889211705326
-0.6922527504484607
-0.711671015556933
-0.5963041948274493
-0.5669717978581755
-0.5874937615888564
-0.549782753472222
-0.6798946521671585
-0.7034578996719033
-0.7628215088745386
-0.7767083236213805
-0.7036148290854402
-0.6707687894193017
-0.622926994791667
-0.6063509731003868
-0.5194467991694626
-0.4975815325480471
-0.5802583840943197
-0.602471317464401
-0.7271324393469724
-0.7483449600000003
-0.7411176051152787
-0.7641780768753873
-0.8189097333333337
-0.6095560250779749
-0.5765513905276302
-0.5307018251882991
-0.6921467200689059
-0.8387988617482952
-0.6408664018181726
-0.5650837724431503
-0.5289398485103137
-0.5790699089563472
-0.6891036887786739
-0.6892736406314598
-0.5870283745548126
-0.5186095347509716
-0.459013831680214
-0.6233765007288895
-0.5487691269368459
-0.3356603518098264
-0.5148352695680926
-0.5836074809080979
-0.4532067652194846
-0.24152370860981873
-0.46191251982055276
-0.33872467848729054
-0.21486882014425146
-0.25011418087206577
-0.579392222222223
-0.5209728594134818
-0.6276473772240204
-0.6760667944492318
-0.643466668990181
-0.5515551002273192
-0.6473868388785562
-0.5230623216747473
-0.5757092572704342
-0.6357792126137606
-0.6147899199999999
-0.5864544771647038
-0.4192499203989382
-0.5755110529400262
-0.6832398730527188
-0.38532468898532685
-0.43833900482435273
-0.640022739297839
-0.5440613451546902
-0.3446556895779503
-0.4790700000000001
-0.5674236887786732
-0.559037697246506
-0.5842960454321866
-0.7139782706551222
-0.7036383751337563
-0.6543528211299988
-0.5484342538089787
-0.6171425756721888
-0.5628446513310182
-0.6794013359831971
-0.7754224220302414
-0.7782770497349559
-0.8345307491675508
-0.7394470986236823
-0.6528565629951083
-0.6289216372275827
-0.6395408431495366
-0.4921224890230667
-0.6013786916795859
-0.6110461092663527
-0.64187805538571
-0.6801684608575939
-0.7621561333333325
-0.7568069676659742
-0.7846520920300329
-0.7568504569539166
-0.6198432339693042
-0.6707164663368345
-0.5772460981606339
-0.7703666666666668
-0.7891263638314295
-0.6242850709987061
-0.6989683620252403
-0.5447811563765069
-0.6907403048339429
-0.6277063168153038
-0.7191919994949475
-0.4952514313696697
-0.5929056987847219
-0.45621233002686495
-0.46013342406615015
-0.6580395966238416
-0.33319253333333304
-0.435100075887292
-0.2946122876627397
-0.6513905889646622
-0.6072714421179305
-0.5971291038437697
-0.6160230526948157
-0.6235002115261389
-0.6164618648481092
-0.7326859403612606
-0.563044207878587
-0.4917253814065508
-0.5383116450008564
-0.6407384841082867
-0.6155642127926548
-0.40199322836868556
-0.47569808992974805
-0.6095211345745277
-0.42105529734854225
-0.41716519172853167
-0.5385321380208336
-0.5282773918614502
-0.39030730312186757
-0.4692130522835299
-0.5943032560446372
-0.6453753033424507
-0.5615832177334118
-0.6614097575017227
-0.6837570382326276
-0.6446465921880875
-0.5540825219692401
-0.6474481396912762
-0.6081696392690108
-0.5728251410311813
-0.6972386181029137
-0.752530468986574
-0.7048409560164642
-0.6108755999724466
-0.6231815229411647
-0.6185190248227296
-0.678570126310861
-0.5310799930911257
-0.7029439999999998
-0.6180267380443744
-0.7148902288572642
-0.5945029795596765
-0.6835151496865742
-0.6058256773350923
-0.6906118294108524
-0.6251346208059516
-0.7142690726126193
-0.689567074048094
-0.678807169570339
-0.654566677406795
-0.7192763539116241
-0.7145910903086284
-0.6449062994791667
-0.6710768355584377
-0.7130148030300932
-0.5555190675759454
-0.46125639999999996
-0.6570088893461657
-0.42904985368877874
-0.721505286216161
-0.6835257138815831
-0.5182060279529493
-0.5220408526100891
-0.5556503852281404
-0.5919953038285358
-0.766565832340099
-0.5478264227810895
-0.39271793271241867
-0.45340491312581405
-0.5868825241578843
-0.5850298178258714
-0.3445005752084552
-0.41438861637776303
-0.5125133608183511
-0.3983901333608651
-0.3556021862564902
-0.4961740451388889
-0.46636079521366786
-0.36883081319095007
-0.4311852665840049
-0.6762092744368676
-0.7007423871849832
-0.5898712083271519
-0.503186065678454
-0.5656140022566641
-0.5631475449468992
-0.556056873963965
-0.6955503795904098
-0.6218041541422878
-0.5314280726352151
-0.5005369387476742
-0.5949595045265992
-0.477190328224757
-0.5110525770247188
-0.5493320912774474
-0.6229401557411675
-0.6561731958909984
-0.583158973961562
-0.6343413855481232
-0.7262564368415023
-0.5639893701285549
-0.5256233785079553
-0.4727468108637775
-0.5149433387168488
-0.5780424499276714
-0.7510911744575118
-0.6991579863573206
-0.5869314213456304
-0.7561476851040979
-0.6870378800555191
-0.6976864374887689
-0.6260691744162024
-0.5638578950123299
-0.8259194248122901
-0.7089685209390152
-0.47491192210583216
-0.40415218391996954
-0.47668493535090467
-0.48899339065458985
-0.8201418706193541
-0.5143097690080123
-0.3222751919757971
-0.4107354281757872
-0.5158856800000001
-0.6178249488159145
-0.2852456716428013
-0.3573193134903121
-0.4724610384376939
-0.4328648798762811
-0.2656609971947163
-0.47077977971677615
-0.40713203698024886
-0.37553887721553947
-0.43814691361851626
-0.6914782617054264
-0.7420383077480431
-0.6203624952327114
-0.45684363072340045
-0.4403342899772673
-0.4727806773432279
-0.5343342674106221
-0.666152856391506
-0.5838640553953627
-0.5149430887384819
-0.44416680584574064
-0.4555770210894113
-0.3961018861113556
-0.406416214797112
-0.4547323729203298
-0.5994372325422591
-0.5992286351395332
-0.6851491572743921
-0.5692699862999434
-0.4057848166287788
-0.325789131971971
-0.396157634908743
-0.6109856110883721
-0.6969201704346802
-0.6278837153995874
-0.6661412278569954
-0.6113154043274659
-0.8522718463393631
-0.7252586203110152
-0.47870854470885865
-0.3875838230279473
-0.4667179819328167
-0.4289512746435214
-0.8447153049874173
-0.5519002864543677
-0.28765451657756463
-0.42719006211114885
-0.5273166666666668
-0.6742625236237866
-0.34576922872451915
-0.29065101089467427
-0.5028094234813567
-0.4860732315626735
-0.2861453402419834
-0.4599111665673758
-0.4278965221450055
-0.38602625849952954
-0.42014309354005186
-0.6245139999999999
-0.7120250887616743
-0.585109497654278
-0.4574123531413678
-0.4550376478991023
-0.49706397485225834
-0.5821672376464752
-0.5150257849034597
-0.4291274699295529
-0.39605595982183667
-0.4597029072552778
-0.3240629742294035
-0.2906820841373012
-0.4021276792428867
-0.5446968619791669
-0.5286390564166152
-0.41623680394142876
-0.21912223414239926
-0.4640485156452217
-0.56831216
-0.6065403298202108
-0.767666666666667
-0.7130143292120317
-0.4807409136987915
-0.3729338179671944
-0.5343186435336483
-0.5337775656127306
-0.7860500475304817
-0.6098244633428567
-0.3157951019421103
-0.4048650427026039
-0.6003894868361226
-0.6804060198388094
-0.458109484277656
-0.29092149891177527
-0.5283257326841851
-0.5323324767513942
-0.3607135809354585
-0.4623424889770937
-0.4052499147019279
-0.4346420227390184
-0.43536
-0.644727761588857
-0.5333795548048653
-0.38721515325472217
-0.4344336215834304
-0.5845308199109762
-0.48045995225694443
-0.38242092133249916
-0.2884508901155068
-0.4409146285320431
-0.2479366551764078
-0.31391829221047546
-0.39588625645794556
-0.4431301333333329
-0.31897035053286255
-0.5356855961975611
-0.7045629730279215
-0.5229397846109188
-0.32373868072560996
-0.5197368021219705
-0.6673576332564491
-0.6662370110733836