<?xml version="1.0" encoding="UTF-8"?>
<VTKFile type="UnstructuredGrid" version="0.1" byte_order="LittleEndian">
<UnstructuredGrid>
<Piece NumberOfPoints="1536" NumberOfCells="6750">
<PointData>
<DataArray type="Float64" Name="f" Format="ascii">
-0.5296655717444774
-0.44986
-0.5012995644899586
-0.6823383061566131
-0.5297744249488499
-0.6965833518121048
-0.5656282968132685
-0.6502053776041666
-0.6644164049669412
-0.5997077731395342
-0.6997036856788593
-0.5758318553158486
-0.5750256468720936
-0.669216
-0.507947254047574
-0.50841265158489
-0.5852756850588965
-0.4548038556816232
-0.7901929845618517
-0.6322991196528206
-0.5197609263562296
-0.7567228349920719
-0.7429908906798933
-0.4986910894299034
-0.6821640365306965
-0.5218651866592179
-0.6436180596572407
-0.5389225746002869
-0.5650644634428595
-0.4969038445752731
-0.4099894985240322
-0.5965322039280445
-0.38592434749107335
-0.32063179976611333
-0.39945211006406295
-0.4598707509217763
-0.8174645245015236
-0.6320915127092375
-0.5479640907428126
-0.8958347541880874
-0.7225465922531277
-0.5190634283862238
-0.8012147171862622
-0.5492003967761933
-0.5824336455673896
-0.5689049089042878
-0.44365097658456776
-0.6699451874767516
-0.6176589459949575
-0.4077662618116867
-0.3804472468522963
-0.7482805404611246
-0.4173864182078704
-0.27323626205214147
-0.3797874911694849
-0.3111141527759107
-0.24746193022612686
-0.29086869157964584
-0.3708763342839428
-0.5151789577014715
-0.738869588430967
-0.5958935999173383
-0.5450158546649188
-0.8880614994085664
-0.6359340226086229
-0.5492306870366425
-0.721080172919102
-0.7835916691577175
-0.5060171599065176
-0.6186357544136315
-0.6251019195098039
-0.4098509506096301
-0.5714250906089832
-0.44155663579786864
-0.6937527860301708
-0.47337908798328227
-0.7097073246715337
-0.3607068431780906
-0.48402775221044375
-0.33639055762442643
-0.5392007262783967
-0.24912806319504985
-0.3779656843814092
-0.2386165740731778
-0.24417834239367275
-0.3698802246926339
-0.2160218953604263
-0.42726965984578585
-0.34015296044637333
-0.4733569994235971
-0.6524886927019097
-0.6256699999999997
-0.5811945402690801
-0.5522131171378173
-0.5906253342013885
-0.7685198350673462
-0.7484212541024976
-0.6689520950353658
-0.47862203965113664
-0.6054412574912174
-0.5713550741460115
-0.669044695223096
-0.4858147368362862
-0.4731307070670317
-0.5816422666666671
-0.5545134906408203
-0.48312333333333257
-0.5294328780801242
-0.3354374251686237
-0.5097556439793393
-0.5239846703864445
-0.5350149633251952
-0.28339131030702597
-0.41135797655247525
-0.4871175478106515
-0.5158096273792535
-0.32436021548680827
-0.34682537499669147
-0.4175107244220407
-0.4391021571180544
-0.3634154144827107
-0.43121222454600655
-0.3552260126059093
-0.49565907162219663
-0.4092047999999994
-0.47531164910105356
-0.627053289106578
-0.6631119999999999
-0.6688887622295246
-0.5405357263350612
-0.6889270208333332
-0.6713330681131434
-0.5041467323793521
-0.6323331438313701
-0.5538989092159992
-0.6944784402429655
-0.652525273594833
-0.6182884205412796
-0.4125629203715253
-0.4842916251200909
-0.51780632
-0.5851993036697184
-0.6282276096914289
-0.48101272342002604
-0.32002481000193134
-0.45025369027218004
-0.4397505654060757
-0.6557147253487637
-0.58089
-0.5800949994537435
-0.3760715136458537
-0.3003306328969255
-0.41056143110644827
-0.3494216704879802
-0.3224092809366627
-0.5338583679513623
-0.6285090711015306
-0.6482430378820758
-0.36253899330833456
-0.5013617699510439
-0.5305993575615867
-0.5937997473958332
-0.5152541890250337
-0.5101832938268541
-0.5091378164910106
-0.5350595473685581
-0.5305434399999999
-0.5661334928704278
-0.6873877067807469
-0.6309522494317004
-0.6798354921189692
-0.6558071513461973
-0.7131596364378289
-0.6159455490115037
-0.6330682956714866
-0.6446649650926606
-0.47871904425190204
-0.6746536916939974
-0.5733490091480352
-0.517949126927051
-0.366769365065527
-0.5580846417930373
-0.6676959835839896
-0.6649930099194046
-0.6074121052905802
-0.3962120405005258
-0.305342110019824
-0.4763543918126767
-0.46540052866274195
-0.641465347262695
-0.6866172197886198
-0.5314142683082276
-0.2942320067530079
-0.28518903225184294
-0.39989731866232825
-0.7273464664059949
-0.5479230915478402
-0.6824021911020988
-0.4947479479102193
-0.2693225952241211
-0.3212345244216532
-0.35105655463234836
-0.4691340384609349
-0.6332638363027655
-0.7127736321566549
-0.5857064678627368
-0.5008902852719954
-0.5953735442860087
-0.6284345495657426
-0.5713123429642831
-0.5946282460042888
-0.6151120657416252
-0.551359010940249
-0.6351130937847397
-0.5931032227319697
-0.6540417770940979
-0.7204099684748567
-0.5271646042570786
-0.5495983146274009
-0.6648184252944825
-0.7245493578348331
-0.592930488361975
-0.7028133191631306
-0.5728408614770057
-0.5395275607977082
-0.6342062099607357
-0.6376924973100171
-0.49459798396362914
-0.4414815996853912
-0.4711785360049993
-0.6753065295655035
-0.5304535853982645
-0.4727714811621119
-0.40629098681435677
-0.30665991183827584
-0.5684301827099142
-0.6764993831370117
-0.7025249022525316
-0.6196089850183791
-0.42822274953514383
-0.2267791568044665
-0.3935157527753674
-0.44773169222032466
-0.6406203448664332
-0.7206035692180138
-0.582017874890484
-0.36556130144024673
-0.22758405335813156
-0.4044987165208234
-0.6940210472247492
-0.5077897675139491
-0.7023208040651165
-0.5681376804339665
-0.3666173416018957
-0.32899057478905036
-0.45444885174798794
-0.5578241454019425
-0.6404510269763257
-0.6867483971182984
-0.5317811004904776
-0.5770406947817681
-0.6309695262740238
-0.6486997248516139
-0.5560020875054353
-0.6775385634152508
-0.6798113882010051
-0.5726711707220484
-0.7396093463173262
-0.6182957117999586
-0.6963659250859704
-0.6143181294591002
-0.46788599999999997
-0.424767369458739
-0.6198326022674935
-0.47380274739583333
-0.732697066877703
-0.6284871153130812
-0.624858978761221
-0.6347071753257153
-0.5140111072535649
-0.6048474592323901
-0.492388
-0.5458819238920403
-0.44904730574136903
-0.6341277605565888
-0.5076305062367795
-0.48757488654680714
-0.5485179584160723
-0.3155643544031888
-0.501976648848924
-0.640551620858304
-0.43930940135403235
-0.5480767867175208
-0.29218816682745463
-0.3451979547954558
-0.5504961054203347
-0.6722063316800994
-0.7341644016848622
-0.6060156070243798
-0.4634311146010924
-0.27705524113807084
-0.32723444012399283
-0.5178263430689168
-0.6057531609446949
-0.7154182067003991
-0.5595332400305465
-0.4478287590020476
-0.3002582370462223
-0.4116017299395142
-0.6593888739462629
-0.537672
-0.644329575930307
-0.5376399527002588
-0.4775261838671893
-0.4169399575002843
-0.5425354356708835
-0.5684549763918164
-0.5666153831697455
-0.668178067757704
-0.5476608827577654
-0.6400574355540404
-0.6136932875529607
-0.639033547232925
-0.5808120208333333
-0.7461815452360324
-0.6792566358607286
-0.5816188580285183
-0.7650835395487702
-0.5798652000000002
-0.628528065716057
-0.5062330629714594
-0.4939233333333335
-0.41457416496166344
-0.6713686859023192
-0.49488429521750826
-0.44425800347222216
-0.5575541893003723
-0.5096813721843355
-0.6028164518339366
-0.6484781515112089
-0.6089254102087206
-0.47496277390645875
-0.5947706111759014
-0.5624616138297361
-0.5486420000000002
-0.47564749814454305
-0.5723771502376529
-0.6292208694526554
-0.4064593838356417
-0.47087243045137067
-0.5909066666666671
-0.4477796155418565
-0.5988518650349431
-0.465689316622567
-0.35205139867483015
-0.5153426738586812
-0.5807986662533579
-0.525939252175343
-0.5278349271751014
-0.31663273975296585
-0.4244686443865735
-0.5240374834488688
-0.6819026563913502
-0.7118981826152604
-0.6007076567252323
-0.48183759215596383
-0.4051009075566567
-0.35255567082455114
-0.550062840045861
-0.5713561886043774
-0.7047996338784723
-0.4956744403579782
-0.4922132061684443
-0.4632627111111099
-0.4520563985913692
-0.6277935380918547
-0.48435666666666627
-0.6199601131619299
-0.4389695385751562
-0.5493240390989876
-0.558626763105324
-0.6077539443898877
-0.529084198646331
-0.5224451585555835
-0.6307005028361291
-0.4464549680699354
-0.694063205181992
-0.5816467454564571
-0.5659917872424937
-0.4803401736111104
-0.7384416051159156
-0.5608607859053051
-0.5066653637115103
-0.6308241204965427
-0.4964410666666665
-0.5081131824757177
-0.4672942100839756
-0.5357318536887784
-0.4701559830144
-0.46669064143431144
-0.531755021698698
-0.4678353261621649
-0.5171936166568593
-0.46764075842116104
-0.4085344789428343
-0.5427367922970606
-0.43362453436692516
-0.45075649595030226
-0.5654250073694492
-0.43835
-0.5277470301940603
-0.6346502250604507
-0.5569545141558174
-0.4520051011968889
-0.4659535930476982
-0.6107820901400807
-0.5463249523621108
-0.5277138014387551
-0.5394913615563102
-0.5474284189172723
-0.6583245232486042
-0.6144039919601263
-0.49035918732709033
-0.5999554940234892
-0.5962366666666667
-0.46168027276321116
-0.5076714533412491
-0.6414522114574733
-0.504314759666853
-0.7191323646372901
-0.542657408547586
-0.5596181974788176
-0.6151021321806255
-0.42240551630048456
-0.5343094501002331
-0.5530099999999997
-0.49183784030916367
-0.6556755612906321
-0.4670834207983758
-0.47165903124999903
-0.5466745398970794
-0.5622371288633061
-0.6036151705459734
-0.5180457409790553
-0.4518347788799329
-0.5360612951388882
-0.5415801287499845
-0.6457770688619301
-0.6336483230006201
-0.6032191865110764
-0.4954037536449753
-0.5562735908245499
-0.4980263199999992
-0.5554541198172781
-0.46926417550168414
-0.6696166003037406
-0.4909314937756886
-0.4882389742068097
-0.620599626666666
-0.583169577185368
-0.4619039967458925
-0.30891938417028436
-0.6013452628911368
-0.41580596980552026
-0.56577726315966
-0.6714565455672655
-0.6487046068553627
-0.5199707884706389
-0.4887750125628631
-0.44943257832547684
-0.2695527381307345
-0.7063917480036269
-0.5088774205001035
-0.3994003514045683
-0.3473934638080575
-0.6166368601578384
-0.38830107507939365
-0.45363613180557777
-0.43468861394821273
-0.49063059756147914
-0.4726242753475295
-0.4705842732658257
-0.4684858765253898
-0.45186500122297346
-0.43479979217900494
-0.47760745638976937
-0.42253069897980594
-0.48487532888872936
-0.4412614049297705
-0.5191338130773574
-0.52828041576082
-0.5000187995614583
-0.6437308593750001
-0.6409118234346279
-0.5620870062310271
-0.6642060126059112
-0.5495113223806571
-0.5140791409725646
-0.5145326010569106
-0.544526197362256
-0.57368284897186
-0.5248709881815384
-0.6220210709776682
-0.5385957854254412
-0.6979689579665217
-0.5806957463910041
-0.7456979979025808
-0.6285191437790337
-0.5918693629284847
-0.46804643857349976
-0.624249740648894
-0.6337088000000001
-0.5667049612877618
-0.49660561744206094
-0.6643990328197854
-0.5369789630915475
-0.6780865178311998
-0.516923977457261
-0.6514514626162433
-0.5984334513728382
-0.553233326224659
-0.6363950180420358
-0.568113774540194
-0.5774001423285463
-0.6597803897622732
-0.5632288772527884
-0.6416610661458332
-0.6234396403356449
-0.5419181656010884
-0.6339081627998943
-0.5838938321554039
-0.6411769273403594
-0.6528755992489402
-0.5685708689354065
-0.547562541847489
-0.5402150282427495
-0.5749017786961113
-0.5284838184692914
-0.6670500307555701
-0.6705817760000001
-0.6100222799128847
-0.2873161847908312
-0.5368478893660419
-0.5189738230442112
-0.5095735185015258
-0.6982991617965143
-0.7125137311841289
-0.24483297137400553
-0.12668327030378168
-0.46603015591409597
-0.46759701734896514
-0.5942760107438013
-0.7060591280972889
-0.6928144250241014
-0.5449391120892746
-0.38075310760304854
-0.2839704933426524
-0.16140596974267093
-0.6681873167275804
-0.3972857533650192
-0.3279473784325744
-0.32684422702827925
-0.45804490531805114
-0.3622376339341155
-0.49882486803017484
-0.3697781462477221
-0.5782986538127712
-0.5513034889972939
-0.4972712109940068
-0.502158763379113
-0.45961882872888876
-0.5240451708241585
-0.45889711822481843
-0.471302250066691
-0.37794704119325223
-0.6001743147959645
-0.4441948262211212
-0.38270498614160986
-0.4370107943552933
-0.7002328766274024
-0.4169772438726624
-0.38911668976879216
-0.6040385805004328
-0.5451785261953611
-0.4019096262489367
-0.47191399256044636
-0.5586557123372601
-0.5685921263726018
-0.592624509588182
-0.4929155953528492
-0.6388592233932628
-0.6396844816422121
-0.5269722831834845
-0.6650264851862797
-0.5871763657046466
-0.608733712982911
-0.6413601438623742
-0.7178295199149947
-0.5455770863455848
-0.6831463150706312
-0.5637963279570938
-0.5965968402004728
-0.7107250619962803
-0.6974189733416
-0.7096429043228665
-0.6100645117703233
-0.6358902580171416
-0.6257201879727213
-0.5795481645785754
-0.5645455136216935
-0.6860734891341186
-0.6402915935390712
-0.7204075441217627
-0.7459416104934532
-0.5883278173865119
-0.6440148840997544
-0.65489375304815
-0.7037720005742254
-0.7938577684148335
-0.6803840253226014
-0.47274237900392685
-0.6240552579433033
-0.676544409241579
-0.7896719073235053
-0.7222996014523555
-0.5396904724282093
-0.5011308958462494
-0.4518330411520006
-0.505668234963134
-0.5444890269403982
-0.7276190511763332
-0.7689814682537716
-0.6636667184228625
-0.15538185660210652
-0.3956723761644174
-0.4659501787317238
-0.5521050281890266
-0.746004425322035
-0.7560680951287376
-0.1445865158591015
-0.08668592622442671
-0.3521389287813496
-0.4627482699767605
-0.6316309830295522
-0.7465411650090544
-0.7096007160840695
-0.5439721801611905
-0.3455938112690288
-0.2734179430250696
-0.15985023150883476
-0.6081274130120696
-0.39945613301181565
-0.4117645627808227
-0.3634938168572301
-0.42137715421029304
-0.4950598370440142
-0.5542918011002005
-0.47420117778949594
-0.6601598508369502
-0.6603354381531699
-0.5216204994144796
-0.5554862887294513
-0.4668841903518223
-0.42418827726940944
-0.6508635136744186
-0.478747523423059
-0.43402649225199147
-0.28237554037879425
-0.45221733164963734
-0.689422
-0.44633226455538527
-0.24915394785852532
-0.2503101602985825
-0.5495095893997256
-0.3855469211800379
-0.17405168608331
-0.40328093747040233
-0.29484044228228573
-0.32369686913487733
-0.34913960322380666
-0.6356126666666662
-0.5816053462251655
-0.649107444622265
-0.4662991164481192
-0.5761261169756634
-0.6189641652330627
-0.715058005992974
-0.6214270933515192
-0.6399859067332696
-0.646868546206814
-0.5208629650174683
-0.6800462654941447
-0.6074578883070431
-0.5973883888218108
-0.6658696493759524
-0.617591489583333
-0.7180524481640718
-0.763801823279981
-0.6978362202934495
-0.7769247506480395
-0.7209128740705942
-0.6245508133911969
-0.6718449054212298
-0.5720766388119845
-0.6265028322191554
-0.6448898666666669
-0.6910839586845211
-0.8029309683230123
-0.7779623039087845
-0.5424006666666663
-0.6040839768547226
-0.6345084588055383
-0.7830146001137446
-0.8507509576509439
-0.6347277884555763
-0.4608448019563272
-0.5646659676997975
-0.7264842951509144
-0.8559499193168825
-0.6878202734374992
-0.4886458919901296
-0.5397648396661395
-0.4200200687958195
-0.49155089295199855
-0.5003598739929197
-0.7006382471585032
-0.8271328130192187
-0.68052386557423
-0.2098946293559831
-0.36140918563293467
-0.433432535531212
-0.5509390227634013
-0.7256505599999997
-0.8002476175777583
-0.17148481595882933
-0.21303290645994766
-0.3713423599740684
-0.46712836387624873
-0.6420308082386171
-0.737579680099194
-0.6895507761565306
-0.5708950118767647
-0.4316362734691557
-0.3042502383994205
-0.28340136895056156
-0.6021825796986856
-0.5174143455840364
-0.47626396047866865
-0.4671938491252146
-0.5229561646112479
-0.6040544817984282
-0.6299184202678171
-0.606744286982792
-0.7114194220155038
-0.7048627775973959
-0.5428855555555551
-0.5553370647974264
-0.4451256382189784
-0.31726976062796014
-0.5658357815495946
-0.6215819962802233
-0.46139334366604695
-0.43137151355761744
-0.16455703346467762
-0.2772871368925542
-0.5432505785768899
-0.4626011820624096
-0.26265186160924103
-0.04548452296246585
-0.3451763484335091
-0.4591956606048076
-0.1578565020863748
-0.16017215815267227
-0.23293967812236582
-0.42793985322997347
-0.44585666666666585
-0.6561068
-0.5761244146154957
-0.6300707183972043
-0.4609120559025747
-0.4861465692014592
-0.643807461383172
-0.6828368685691463
-0.6564278767189538
-0.5997339395254628
-0.6441232179555506
-0.5081346976674718
-0.6358300147331499
-0.5647114630143599
-0.624432139092987
-0.603767442653441
-0.6337320333333331
-0.6752271154492768
-0.6963352058628188
-0.5939056
-0.7296279809703932
-0.6825388172211517
-0.5901287089894608
-0.6116687555555559
-0.5882262384148269
-0.5724888943996699
-0.5457767360000001
-0.6731400399182408
-0.7837347124948484
-0.6702142748837496
-0.5032788888888887
-0.4691089996280224
-0.6211363988404434
-0.7983977518956632
-0.7564480781250004
-0.53954293577476
-0.5570187376464919
-0.5307715755950485
-0.7715006261887835
-0.78312704066956
-0.5824951345486103
-0.5293503435679577
-0.6009616787251292
-0.49595050309327954
-0.5475813541914859
-0.5025816683506167
-0.6161256705930976
-0.787569072
-0.7346068263023406
-0.35517277687255516
-0.3875966305803657
-0.484516656082653
-0.5708949747639861
-0.6481727555555552
-0.7891552168629882
-0.26956960200206564
-0.36073
-0.3964427019777048
-0.5166885302573346
-0.6772654252692086
-0.651368583040573
-0.6998985511963199
-0.6214703777785805
-0.47666880366605485
-0.36311415348955295
-0.4420670487940975
-0.6547552779376219
-0.5823896647618129
-0.5164856537060634
-0.599332734375
-0.6099069943988971
-0.6330327130030841
-0.702374993800372
-0.645349566641176
-0.7119127999999999
-0.6489700805951644
-0.5372013333333329
-0.4892330455532476
-0.4570026782929392
-0.23679083435125184
-0.4716383810344313
-0.538715410340306
-0.46591188220706764
-0.4422770130914307
-0.2225216012853848
-0.1398592259467463
-0.4331878644348007
-0.4760771866088032
-0.42163738847948085
-0.0713404282780708
-0.18588493956035299
-0.5023503455259352
-0.3935979309870146
-0.12831639282716037
-0.44709963213259635
-0.5233822772093023
-0.557994
-0.5617529452366188
-0.5378584211875084
-0.5462979752635567
-0.4906116701256647
-0.42734447028950906
-0.6437121108606589
-0.5781209024765684
-0.5426403665427594
-0.5347585416666659
-0.5642158397013303
-0.5264260124996488
-0.5856472622733974
-0.5421887155535455
-0.5512123185231116
-0.5207469673486252
-0.5285021376694131
-0.5714577904863732
-0.5432259346972511
-0.4890379999999998
-0.5944679636401878
-0.6047161532484041
-0.5211628626469783
-0.504524026666667
-0.5113826678305767
-0.4421024368671213
-0.4927727111551974
-0.6551117875468253
-0.6783828903596856
-0.5166683728274114
-0.5500377178480401
-0.3956981853631127
-0.6636195673239503
-0.7357487248611103
-0.5954716666666663
-0.5239073406588376
-0.6364598921387714
-0.5878198452352245
-0.7683626664765447
-0.6358000991940481
-0.548501569196531
-0.5977781619428716
-0.6372392866958981
-0.5702148058932234
-0.5693175286101807
-0.5451067835204083
-0.6246019365424488
-0.6497290933333328
-0.775469419901869
-0.45205830119660295
-0.4062336136118787
-0.5193697708586617
-0.5971990637047392
-0.6760216379141695
-0.652313277123372
-0.39836719190307424
-0.40181403585959236
-0.5384732873376966
-0.7017531901743777
-0.6419379737183946
-0.728638423086368
-0.621679391551684
-0.48742618722970116
-0.4860120857842754
-0.6749335445309147
-0.5889149014169174
-0.5822094507592999
-0.6314505462202035
-0.6166953641432613
-0.5819430038810233
-0.516359979678997
-0.44143035478959197
-0.47994926985387804
-0.3045421358616293
-0.3946372954608408
-0.5439963807695198
-0.5432571801722003
-0.43201059224905447
-0.4226724116566451
-0.1677102801623861
-0.3741483031618102
-0.5520047730765113
-0.4952547005623873
-0.34666672013126143
-0.1524105908921973
-0.5324831088218784
-0.5549286769149054
-0.36371764756944297
-0.6092670055180109
-0.5218991666853031
-0.5289400433973959
-0.5089191374250879
-0.4913059919204959
-0.472233719293006
-0.5012700826838076
-0.4540172264566062
-0.5992542890239421
-0.5014275709857409
-0.48427081821575163
-0.46896012494151945
-0.4945058165179154
-0.4892394957635879
-0.5496370454450855
-0.45063573588329126
-0.48925715370944417
-0.4620872014184279
-0.4849073948059816
-0.524270904795216
-0.4337106223737684
-0.491076554246745
-0.46577246707280656
-0.5735728898441276
-0.5262285472677756
-0.4530165974788181
-0.4345244574654145
-0.37687095013281796
-0.544114322727836
-0.6492694899522214
-0.5512185390529917
-0.46304430063395036
-0.5669752169869814
-0.44921026872062786
-0.699492186732797
-0.6223041332672756
-0.5440776918101409
-0.5135638310855506
-0.5949526817986353
-0.6563498013287636
-0.6735624926086653
-0.6302706514037179
-0.5381723289653402
-0.5716837521783286
-0.620707870222722
-0.5886673258937795
-0.5366270518623879
-0.5476114806825408
-0.6523262855884459
-0.6431360983839629
-0.6971446506475224
-0.45145106348041336
-0.5217844781671358
-0.5862847236574601
-0.7315547206860917
-0.5843886594713058
-0.45275816443114086
-0.5619111917965522
-0.666432320456932
-0.6839732958216765
-0.7131496024186746
-0.6337620366193413
-0.521534540550743
-0.6913947239921062
-0.5972934042984085
-0.6377580992291519
-0.5645844954191636
-0.5051258681734508
-0.45777011166272713
-0.45668067887218616
-0.3870330579441268
-0.5526339377535053
-0.6480752818501131
-0.5040285348538535
-0.49528016149304516
-0.3676559830978164
-0.3303264543087416
-0.6845487885668681
-0.5075356138252373
-0.5188832510629307
-0.31389268650547525
-0.6746873024131732
-0.5257371793853589
-0.5468337031250001
-0.5507709970354097
-0.6018351731767028
-0.5143578559619754
-0.550644
-0.5522149899695569
-0.4943913747240741
-0.46970760837626263
-0.49360479841565086
-0.535925377868937
-0.4805300737066884
-0.5469689863723725
-0.5116398341168972
-0.4952615971497754
-0.4412147464848109
-0.4850040004537946
-0.3796408495485188
-0.4895636234480973
-0.4894150359882274
-0.5335582197916667
-0.507391797363201
-0.4616786826176939
-0.4854733044017357
-0.4393736148075955
-0.5428615015594146
-0.5662919898326101
-0.4827627657918298
-0.4240926942093462
-0.41005478511650223
-0.5925144160000001
-0.6082760939201363
-0.5152984009352815
-0.4258764906085956
-0.4866884959013571
-0.5092215424674521
-0.6650815244885311
-0.5984239107681565
-0.5220688145592777
-0.45074043345808407
-0.5299301383212303
-0.6502958399011941
-0.6266208655118285
-0.6631840041773498
-0.4911774598284375
-0.5228425350694308
-0.6049777247365159
-0.5247881262843741
-0.5478180013830388
-0.5950251650768936
-0.6958169320768753
-0.6064187958471495
-0.5216595923946387
-0.6012334990749202
-0.6704836785286212
-0.5950070313444431
-0.5887188493915101
-0.6615367839950785
-0.656711385814165
-0.7015213999228792
-0.6876891725976443
-0.7586037537152607
-0.6271473333333336
-0.6617554916028907
-0.4864039669108677
-0.47489228130450206
-0.46361984497502123
-0.48265530013873864
-0.665651763587518
-0.6903015245799898
-0.4650552808179758
-0.46830690881676823
-0.40147559999999943
-0.7411983515189089
-0.6432282877851154
-0.4745877989158003
-0.4696287154370739
-0.8367737863194877
-0.5539851842183635
-0.5190700614352457
-0.5052454316649405
-0.771886754935401
-0.590578
-0.5846986666666665
-0.647176405563478
-0.6111998054278921
-0.46420933636614775
-0.43619737695391625
-0.5106973713282423
-0.5178588777349385
-0.5813766713373424
-0.5827972005208335
-0.5413273562197283
-0.42904764138648227
-0.3973702726528248
-0.37232788730437444
-0.503072267747171
-0.528463782599711
-0.5355046753472218
-0.4886882533956171
-0.5217234239719851
-0.43531584707584187
-0.45722186814223836
-0.4973663129746105
-0.5465667274230211
-0.5148924533333331
-0.4391197655501718
-0.44961634759247787
-0.5769309866666669
-0.5497215915868968
-0.5226712430228625
-0.3889099332998336
-0.47809414642549525
-0.5205309167183304
-0.5925026543750304
-0.6127829878540713
-0.4693555719662719
-0.4666731752175946
-0.5592418846869188
-0.5924155297635415
-0.6193442379482955
-0.5800370833628959
-0.5058533968121951
-0.5336055981737753
-0.5609732161969588
-0.562625145236406
-0.6074797292333117
-0.5548290799239483
-0.6366926669412233
-0.5975410423428085
-0.5428936261747291
-0.708892187724736
-0.599425362497965
-0.7281859831752927
-0.6213077777777777
-0.7484114446737422
-0.6238056624945277
-0.39461829795127984
-0.4634184350015503
-0.47595006612936525
-0.6055825618240681
-0.8103016006325241
-0.54171141144848
-0.3956996775643465
-0.49587728000000014
-0.6982105145691255
-0.8053477730326647
-0.47171264437397237
-0.48282721309136184
-0.8548345240063379
-0.6833076103500931
-0.49929775510769675
-0.5570053130386262
-0.8139035610680452
-0.576733333333333
-0.5709989506096304
-0.6330189378000974
-0.6872013584612001
-0.5204264515363947
-0.3327473617876351
-0.4815351423190449
-0.5948385401676063
-0.5186097079079736
-0.5435200361689815
-0.5770213080021062
-0.44983895323656026
-0.3287999071382614
-0.395397762504991
-0.5287275365984705
-0.4916917031755867
-0.45509352121489094
-0.510275292646739
-0.5441306532822273
-0.4873012642894053
-0.5003234278367255
-0.49083508461256625
-0.4674740712334575
-0.5025822222222218
-0.4755789904386845
-0.45366186402149206
-0.5159506712791905
-0.5234592976566214
-0.5370637810917783
-0.47621999705624
-0.5867933333333331
-0.5116672991763168
-0.5414452649942536
-0.5763916571824873
-0.5164091674184429
-0.5606145069956804
-0.5343622918466778
-0.5521335678930582
-0.5331175866591056
-0.5812593185763886
-0.6057669043190745
-0.5071580417323
-0.49807863295481614
-0.5965978666666673
-0.4856615264873421
-0.5575860735689201
-0.5695220348556865
-0.6868392831781575
-0.7320454399419103
-0.4097626129257292
-0.3617048330439292
-0.5391525554866708
-0.5640252304336011
-0.7799979388983842
-0.6698462574382075
-0.38157022579946975
-0.5098273535854517
-0.6799598475088809
-0.8430296835762369
-0.5792274315331611
-0.4965009066770208
-0.8286129062657844
-0.732656098077062
-0.5594121770833332
-0.5149431124062244
-0.7540453976103941
-0.43934517462285694
-0.5740985034097953
-0.5259689142817353
-0.6218634199505307
-0.5940405662030338
-0.3331319033439079
-0.4222972746909974
-0.6745517923061835
-0.46317333205094674
-0.43372031981272774
-0.5379891759006609
-0.5212645702913824
-0.34364209508150795
-0.4743126697347073
-0.5257565184817796
-0.41405492941981703
-0.39042009807763095
-0.6095526126521613
-0.5603941412824209
-0.61912
-0.5695260757395798
-0.5674336370978098
-0.4111844471129069
-0.46525395194599456
-0.4859396290169408
-0.4581225483994415
-0.47427720726596395
-0.5587134263556268
-0.5938916424128409
-0.6254896856593712
-0.5067046875064618
-0.5426816916377751
-0.5690260175954585
-0.6489081250000001
-0.521791713192158
-0.5047029717356389
-0.604337511469312
-0.5117385600000002
-0.4903498119452892
-0.46080961066336024
-0.536349843976028
-0.5886767367717115
-0.7130102525931342
-0.5177849851709221
-0.350550628793524
-0.5825364910464126
-0.5707760672129867
-0.7523589702505936
-0.7303232513515048
-0.49141927289865467
-0.5275749234552592
-0.6942491405597498
-0.870045705295253
-0.6555069509806567
-0.5546619714817113
-0.7814093228453413
-0.7346250086412347
-0.5294806640624996
-0.3981047251512985
-0.63187954937323
-0.2623666676999379
-0.6487639181649104
-0.41853533437586793
-0.5259290706148576
-0.6036874427472868
-0.45237162099607336
-0.4259389226386982
-0.6402867346943681
-0.5301198249505622
-0.32923728376779154
-0.4808633537377401
-0.5581524522008681
-0.45354644240719816
-0.5154712850141577
-0.49516607467107515
-0.3452800498884923
-0.4465782178254381
-0.6214161735094055
-0.5950658410828681
-0.6392212670299982
-0.6067591645522513
-0.4633713492721689
-0.4353376875387476
-0.46205299750328344
-0.4769927016669557
-0.5210504116635674
-0.5901815138734823
-0.6762911169474793
-0.5399442334993358
-0.5575052274005015
-0.6190150036507213
-0.5498512460671846
-0.5121072844389338
-0.4883548672781226
-0.6000077881104914
-0.5213466414044685
-0.6996902981654163
-0.6081021798432573
-0.46015602435968955
-0.6131645778679814
-0.6499387851981135
-0.7421084329132911
-0.8044783262296984
-0.6039003131448676
-0.5493376799999999
-0.7085849190252862
-0.8553258677206124
-0.7106852456204282
-0.5567141661500309
-0.654434910397608
-0.6823126788242555
-0.4537157686731508
-0.3036990431603118
-0.440909107257303
-0.15673227113039856
-0.6297237618604655
-0.43392538181732365
-0.45607568579708385
-0.6027830604166075
-0.5518894511400432
-0.49782789094613994
-0.5332739770613767
-0.5359834695889455
-0.3310572414408898
-0.4388118699189476
-0.5387483433298142
-0.5227104889863183
-0.46759428680274434
-0.47040233553081207
-0.3699612659094214
-0.4937938666615527
-0.5450710337193297
-0.581192181344771
-0.5329064098232865
-0.479612766177585
-0.4520500150101219
-0.5180678489522154
-0.5763082395948319
-0.5719731675653505
-0.5677798338029351
-0.5178224864641454
-0.5149909372277093
-0.6227755297157626
-0.5353599328610611
-0.6976832558674976
-0.6884502196858159
-0.5675853272282515
-0.5936766137631743
-0.6801557382206261
-0.7038759241828728
-0.8335818095372232
-0.6888546458970078
-0.5421122666666668
-0.6697132040433754
-0.7044117538981657
-0.7258633067631165
-0.5451028992178014
-0.5227183397610816
-0.5197317742648982
-0.43973508205223827
-0.2528128183240308
-0.34107351545785963
-0.21848712868217007
-0.4964019999999999
-0.4717844158400973
-0.44291122909204117
-0.6039670601367555
-0.5829503200174103
-0.5465430413711163
-0.4338309176018352
-0.4059725820211561
-0.45247268281460323
-0.5184690508897217
-0.4985088808248633
-0.43136047413667783
-0.5114878754610591
-0.47595645405595005
-0.4627534869791666
-0.5186135108493489
-0.5706372856778633
-0.4910198098085577
-0.5555521291105375
-0.53006112
-0.523602469931804
-0.5288266666666671
-0.5627064973875472
-0.6496878997365895
-0.72244759225595
-0.6324196698755675
-0.5365466728662945
-0.5841899896672863
-0.6274817451677509
-0.7212621716261759
-0.7229784176394479
-0.5645568307501546
-0.5638820799752015
-0.527951077569154
-0.63471709871884
-0.5765208140768837
-0.45569150960942284
-0.40908301191348445
-0.44656033808288337
-0.3227346322153601
-0.37851784392764876
-0.35435
-0.4229131628329927
-0.4888058179038519
-0.599869719634746
-0.5824636193097343
-0.564705726693094
-0.4271895008680557
-0.5469059073397436
-0.5511608410199499
-0.4832872313012197
-0.4665783269353338
-0.6345927162396044
-0.509827233932631
-0.5763996000000002
-0.5840992487865911
-0.5726898160777025
-0.49565033796179137
-0.5894337048726812
-0.6789803581485964
-0.6546343175612619
-0.5305319962417876
-0.4997475034554595
-0.5779204905714278
-0.6836833075115059
-0.6241899877247367
-0.4166399872533943
-0.558832233351298