<?xml version="1.0" encoding="UTF-8"?>
<VTKFile type="UnstructuredGrid" version="0.1" byte_order="LittleEndian">
<UnstructuredGrid>
<Piece NumberOfPoints="1536" NumberOfCells="6750">
<PointData>
<DataArray type="Float64" Name="f" Format="ascii">
-0.44456318783970866
-0.52254
-0.4981735168774429
-0.36508561535122985
-0.5519218042036084
-0.40675350229461943
-0.46610095332402407
-0.49533171875000004
-0.41265489493885205
-0.3806469676567041
-0.3916621481711098
-0.36095624293374456
-0.30165335322297304
-0.27648680000000003
-0.27166271675450065
-0.30344725928086724
-0.19831876007439556
-0.2274830483664653
-0.21346222930232808
-0.3844998925397812
-0.3689378458310611
-0.2946836438247055
-0.18602733519322243
-0.315082836105138
-0.36606928864613403
-0.2955240523319583
-0.2544468898554541
-0.3604129568249083
-0.30736212824963793
-0.3573722889704744
-0.306557772198267
-0.3645194571930351
-0.4062824383413104
-0.3328362126695473
-0.3856998546807188
-0.37579301172907065
-0.14925784999342187
-0.33436501549907005
-0.28330423504127855
-0.04406803258045879
-0.1720598381247567
-0.2555879876394917
-0.16218421524307128
-0.09308853316800991
-0.23346973148883252
-0.33481576440010624
-0.2787829763414224
-0.41594218586484816
-0.32106042888132696
-0.17382144207541358
-0.29070686292395725
-0.4362494239208016
-0.3961543829205764
-0.31507523220755196
-0.3573302971279833
-0.38742667070570946
-0.40189626157337566
-0.4180366716746737
-0.39543524897706134
-0.3702348287972529
-0.22060983038020424
-0.3512460611696637
-0.3634349873754355
-0.09163624653936177
-0.19616000022024985
-0.39145133176835895
-0.06471744036342152
-0.18138818246058633
-0.22157332317719136
-0.48647527112706856
-0.19107495340846803
-0.17052557759867837
-0.3143265184293549
-0.30480117075910657
-0.5454776906798928
-0.3653737849681846
-0.498567378729626
-0.37215094687952194
-0.3648557581517817
-0.2083662831040982
-0.3987849615233667
-0.36165795296082925
-0.4486392824366336
-0.2868177097002654
-0.39604617033419925
-0.43006492601423907
-0.3134566391558971
-0.4068686410801714
-0.27577225129158883
-0.2708911963872785
-0.36667558429214636
-0.48711666666666603
-0.5717054186041697
-0.3935137167787061
-0.5886555381944438
-0.2528625826684326
-0.2188356303570114
-0.28653738136135964
-0.39787308007782607
-0.5674887910725357
-0.19917958875484887
-0.3515504110789609
-0.3540087597622874
-0.44758751919920087
-0.5448800000000006
-0.28753514502487304
-0.41057666666666537
-0.5020105741948413
-0.39207300003344275
-0.4847800863093658
-0.4961209175449478
-0.45319345834541885
-0.38791459427243496
-0.5301279553497782
-0.43194733377405115
-0.3822314195961716
-0.39803377297496206
-0.46778487753762893
-0.4761016241021127
-0.3683867925347215
-0.41913141140205507
-0.41673548722716264
-0.3278966666666662
-0.37622131127885433
-0.27917746666666615
-0.32770639801611834
-0.5401805980945288
-0.55729
-0.6238671670903342
-0.6225428696553625
-0.6071912942708334
-0.3860779742985558
-0.5785535367480074
-0.5039888158710478
-0.4307759967466022
-0.3481376568317556
-0.3259965909301624
-0.440253406050024
-0.464987006331467
-0.5057666549225394
-0.43021400000000004
-0.39766912428269213
-0.4411936982530717
-0.5530987391739758
-0.48029430802712314
-0.46222942747432166
-0.4087061314321141
-0.4319712912699672
-0.590914
-0.5991713167909775
-0.5642757789554748
-0.46237443079351864
-0.41256721432007887
-0.43307527820800923
-0.4931138183901413
-0.6180958676296343
-0.5219077418178858
-0.5274697218674439
-0.4322286272385106
-0.5172335001404301
-0.5316833814152689
-0.48552943229166673
-0.42578123730569845
-0.4599030911994271
-0.43404355610663364
-0.4402519715460302
-0.38773088000000017
-0.442265614383137
-0.6060756312645956
-0.538060665426741
-0.5334383862606699
-0.6679639331660674
-0.5177920880543605
-0.4813802073431149
-0.6167683455375085
-0.4484594473266714
-0.5466719596134092
-0.3829017918539272
-0.4851029957516015
-0.3978314464558795
-0.5446460013341045
-0.432074320072463
-0.3707764007392664
-0.39010605738100157
-0.4659132427779534
-0.5330502805148692
-0.4989410478697381
-0.3723365847752495
-0.3926761454418131
-0.541728147312294
-0.4656787179057266
-0.5969517651861799
-0.5807552100828027
-0.43714021195839353
-0.31715715715171033
-0.5175489449572427
-0.6083251890886546
-0.5913514976913743
-0.6085293287237369
-0.5345236204324825
-0.394967758552824
-0.47889728637282647
-0.5006453750450812
-0.6091674757054193
-0.5450877761502747
-0.5546354589862518
-0.3953533500161766
-0.514773965557623
-0.5471674163836334
-0.5401101195500321
-0.4342770747509788
-0.5041018115080503
-0.5142378168565314
-0.5001084009728548
-0.46681975685058935
-0.4730037830055883
-0.6069778642313068
-0.6019489419301502
-0.5665331398660394
-0.5324554337673079
-0.6195243658099691
-0.5264568142199658
-0.6212816948492906
-0.4659477779419821
-0.5819392287610726
-0.4102424354205412
-0.5357057265040878
-0.45148667431287426
-0.5796933301484904
-0.4106709339822192
-0.38062993188395217
-0.41553352393328
-0.4764092374624082
-0.5032304737030203
-0.46857523976873056
-0.41895996399826013
-0.36656472721636707
-0.39651330440173654
-0.4316811013632071
-0.5263106506308263
-0.513243088296207
-0.39315798629468895
-0.34892717364801124
-0.5720227062420536
-0.43926751323693725
-0.49820159988612583
-0.5806998751911111
-0.4885151519735486
-0.3403398793804006
-0.5052709677464603
-0.5793109206447616
-0.5047602288655656
-0.4761583249720361
-0.5181120596547449
-0.46956300934287404
-0.4428181848135764
-0.3663609749121726
-0.5179070539179311
-0.49496539074698204
-0.5642062972119124
-0.2724184938657767
-0.47123203059309854
-0.4994154029069923
-0.5487327326972797
-0.4259224777621186
-0.4686641140370818
-0.5288456433581025
-0.43779693109218903
-0.5079634264104154
-0.495811260081762
-0.6907688167505462
-0.7472019999999999
-0.7144254526629051
-0.667322887644278
-0.5977377734375001
-0.5901833558897814
-0.47159253316801014
-0.6215628170596491
-0.6656129017844971
-0.4714826261624303
-0.6023601487659551
-0.4559105599999998
-0.6653439034744992
-0.4433454310081418
-0.4417924316318799
-0.528434857886868
-0.5090262777433354
-0.6006708104867235
-0.44962760859681744
-0.4106526630518595
-0.4239138534132402
-0.502278055188741
-0.46247407694737325
-0.4429751427492217
-0.4663923595621018
-0.44441315389360575
-0.3104990861748295
-0.37461608037871014
-0.3677050634079843
-0.45414100616321323
-0.5254928968339541
-0.4104346440173589
-0.3945178541903825
-0.5984256580097453
-0.38297975613054785
-0.37666449529942264
-0.42455249213451984
-0.51588771346697
-0.4289819546892903
-0.5335665802050725
-0.53571
-0.41187983074085527
-0.3286425169943987
-0.343615299745128
-0.5099475195509069
-0.2840257048202391
-0.25625813485430887
-0.4231770446998422
-0.49272538844876107
-0.5225854227788457
-0.2073699415916632
-0.39357082520892556
-0.4734385389610411
-0.48829611458333333
-0.3416195843647581
-0.42936925793208386
-0.507969946683199
-0.3617015416702473
-0.58445368
-0.6154686757594543
-0.8181053436253533
-0.8557766666666671
-0.8432931475396289
-0.6662430288033514
-0.7829997205010728
-0.6758076085069448
-0.6997592579443043
-0.499156130398843
-0.6595574356697633
-0.5681503165625008
-0.5166664157883866
-0.5501510902298303
-0.7077787761042162
-0.5843898457357732
-0.45837133333333363
-0.5417384526719986
-0.499723963628849
-0.6576806020564502
-0.5517255391359831
-0.44197305361867883
-0.5402566666666659
-0.5749008006243217
-0.5499851958432557
-0.49560570780574587
-0.41646137795720156
-0.5374493842009898
-0.40937781359785147
-0.517072935011142
-0.4214661375667354
-0.4115096611686131
-0.5452247858796291
-0.4244862807929373
-0.25096552414049833
-0.4599993467249274
-0.3010867932422014
-0.3652006542523427
-0.5298544716539229
-0.4284263490803888
-0.44175786288204305
-0.6145095049496767
-0.43911602597066773
-0.32125386056325395
-0.27663525287961205
-0.48729253333333306
-0.506877033977011
-0.5473592624340854
-0.4926766666666666
-0.43111394963584176
-0.3026263826423412
-0.21265840773713665
-0.47228060825239315
-0.20023576724093065
-0.26332518636922325
-0.41847942720276454
-0.4930057201447872
-0.4107004420608836
-0.2259952923213769
-0.36342495686822224
-0.48467985234672345
-0.3831214105902773
-0.2744827801150755
-0.48080844230557734
-0.4917800175656127
-0.43077753265462165
-0.6702185333333334
-0.7335437197768137
-0.8872386978596173
-0.847163515189089
-0.8563519983444597
-0.7934380909163724
-0.7334537817730935
-0.7259210290217853
-0.5608255375664433
-0.5821197437487076
-0.5400494218628085
-0.38134901389656833
-0.5067915452196383
-0.4458224749560032
-0.36056821636938846
-0.52889
-0.5179787258974519
-0.39560370202740336
-0.7070983744575335
-0.8847121648278095
-0.7137002854465884
-0.6230261045651375
-0.6731430153811696
-0.7513718659355318
-0.5680295423491987
-0.5834107607529032
-0.5356525129158911
-0.6616685329247612
-0.5809140957390434
-0.5821640221490759
-0.6028553333333331
-0.49369482911876245
-0.5927948719767162
-0.5913176447750872
-0.5139837072161254
-0.5702202235325267
-0.5325683632438337
-0.5248182458524493
-0.5404118690370331
-0.4152007185016638
-0.5697976087378832
-0.5535826666666662
-0.549130122979404
-0.45905603399238487
-0.35326525796697356
-0.5543058593749991
-0.5698792866679058
-0.35178473431773266
-0.48345873604492545
-0.3569850675224177
-0.5250873349865669
-0.5391936553819435
-0.3734077713437632
-0.3300465619862863
-0.5826772417854934
-0.36040456966058093
-0.3386752127186272
-0.4741328892333117
-0.5180412799999997
-0.46556861081211603
-0.627129316689745
-0.5319436085911934
-0.3920442952003829
-0.2813338841001399
-0.4265230399999991
-0.5685206435213884
-0.5017824173178339
-0.4932669787146104
-0.492108212408566
-0.4060422224841174
-0.25140374992883796
-0.4239248290969196
-0.26163536272447147
-0.36948225750697516
-0.4689337778045756
-0.4469877559145717
-0.34049775024279555
-0.2992787054935508
-0.4136056884066955
-0.493572522770247
-0.3228644104514321
-0.3254702906829929
-0.5652566370113182
-0.45080880175052734
-0.5653128291185309
-0.608082254350073
-0.6439758697947446
-0.7417699603912666
-0.8233116729871025
-0.6277089757818956
-0.6997157378605791
-0.5867954910218266
-0.4604321992305885
-0.5004535182786529
-0.38612247279860035
-0.354776200631191
-0.3168810099183149
-0.3396595593112053
-0.43893860677083335
-0.4021747525238591
-0.2864478027363803
-0.2543497685472211
-0.5750536342219467
-0.733569894357846
-0.7266310177550488
-0.5363486536026066
-0.6373589842756985
-0.5123344623537975
-0.6662977304679439
-0.6065964354176336
-0.5212365952882826
-0.5490005912702239
-0.5534171350089112
-0.5506587842660563
-0.5204779022719053
-0.5190026891952523
-0.6108269439278089
-0.6272272
-0.5098234701260976
-0.4277090941385259
-0.487705629642947
-0.4724752090101263
-0.5398710429701076
-0.5012273132062584
-0.4256747245381279
-0.3667322405146349
-0.4244526364738854
-0.6223029390042781
-0.49504413962939936
-0.463452569286128
-0.3453826709351641
-0.3826555458113295
-0.6110755151041668
-0.5120676731586218
-0.36606872620641345
-0.42439613685967276
-0.41319684141351415
-0.5787634517048977
-0.4733302310953496
-0.3971007696105228
-0.4463916670799752
-0.6617890976096998
-0.4652983861435373
-0.410779866423
-0.41241560288830753
-0.5577433759999999
-0.5200528349832998
-0.6579167679430177
-0.56633437303973
-0.49519840644293117
-0.4195328582922862
-0.3859332868223453
-0.5687382608803472
-0.48569084783917
-0.4478876348419094
-0.5103479245695777
-0.5310536276210533
-0.4091466441189897
-0.40593488202684763
-0.3886563320156373
-0.4965310292870429
-0.49889350380879743
-0.4160063417106195
-0.2965990816468986
-0.4080683709522252
-0.4684985099538472
-0.4637081765862428
-0.30034541197658354
-0.4181379550373017
-0.5353493154744734
-0.3867005246411192
-0.5454371878751552
-0.4665540001239925
-0.48011171174689216
-0.5809734490597233
-0.7171856031006061
-0.545641137340615
-0.3939106195585893
-0.6653052786962764
-0.5396439979217008
-0.3602720985174121
-0.28395464891939076
-0.5881718455856381
-0.3791110155072683
-0.2996953535812101
-0.3417865406075636
-0.3904033525173953
-0.33464055933277775
-0.3774717902605769
-0.30077060444919024
-0.27759351705634655
-0.1631303905765654
-0.6203198421161404
-0.5506217952312084
-0.6552299474510814
-0.5037755248037376
-0.357309578590617
-0.6493774977612451
-0.5023274597233093
-0.5336175315672468
-0.5635351802512473
-0.49432801374918495
-0.3271793330512161
-0.49955512361209004
-0.5055809981787859
-0.47727493688268813
-0.43596227084194417
-0.49233231291545837
-0.6417080241785492
-0.5899533916098365
-0.5417648866374557
-0.3569549188200327
-0.39162585207667006
-0.40501441239925623
-0.5319970509184656
-0.43390862773046585
-0.3378691483033683
-0.326484551575934
-0.4670458540477321
-0.559433172096213
-0.4458382723703244
-0.36825187775189333
-0.3580530348419091
-0.45400655318150746
-0.5089155071236516
-0.46781848478340265
-0.37434044430667496
-0.4408233359623139
-0.49042452612523185
-0.4756478688528835
-0.4548348031227933
-0.4315672364287409
-0.4930793748708411
-0.6896924634875569
-0.5026521957654619
-0.49437268164910125
-0.439059968205393
-0.4716468626741057
-0.5599442656288854
-0.5943890964397391
-0.5738273235382486
-0.529654605603829
-0.5731614757575838
-0.4362392985465313
-0.488265927509065
-0.4610421591979162
-0.38888078115313063
-0.5063025845779751
-0.5641178901793998
-0.5875948673362269
-0.45843026941583803
-0.5403400864419561
-0.525403758214507
-0.4798679475287167
-0.39872720498901976
-0.29775973721473603
-0.45249757951545005
-0.44620455517008334
-0.41351853397264215
-0.32470778962541796
-0.4186649541936287
-0.45532385112838963
-0.37803061797473186
-0.4675645596037497
-0.43540887001446565
-0.47550987627392516
-0.6280958097403053
-0.6565655178753391
-0.5339542026385095
-0.3364502663395186
-0.21552437825323048
-0.7128524731882208
-0.616824024221636
-0.42742947987895796
-0.2575740180101826
-0.2348488
-0.6599862481161853
-0.476281990014579
-0.40107148950727184
-0.31884513914159085
-0.4765080577426352
-0.36394253026804074
-0.38030459142460143
-0.23321523117762902
-0.35322076321490065
-0.22491591651167683
-0.6936966666666667
-0.5625634796403444
-0.6209445553055911
-0.5061456741458111
-0.3266053700740406
-0.12303042125879757
-0.6473250752221533
-0.559230374191415
-0.5148962304709932
-0.55427208395726
-0.49677767978065407
-0.3088423379354193
-0.5449420618871564
-0.48820776849179576
-0.4490170680367436
-0.4351858723958333
-0.48665450840976776
-0.644947499350442
-0.5204141058069853
-0.5092675031172752
-0.36012162198091047
-0.3947981087001444
-0.350152517379624
-0.5110531879412911
-0.33015890372452106
-0.3681407999999997
-0.36524664765408965
-0.4067658272601549
-0.47554133364605083
-0.3630533333333333
-0.38135138499689974
-0.4270439897086178
-0.402321146709727
-0.4188700406401225
-0.42023577361688064
-0.32902821381828135
-0.5007185527354662
-0.45343347356646707
-0.39468299501736465
-0.47424068142361103
-0.41141698149391703
-0.4954282249878191
-0.6435147455929667
-0.48494607743653423
-0.5086680483809568
-0.5383173688778679
-0.402525415631329
-0.5141729373109359
-0.5145535353751115
-0.5680441603204156
-0.503655427253504
-0.6040224804604096
-0.5795659466666673
-0.44530802813944376
-0.4589320162566128
-0.4699852413436688
-0.5058896871466553
-0.5016255758849654
-0.6105579906592272
-0.6104632783632982
-0.5629377411462915
-0.4377929165993606
-0.44889771819628527
-0.40204447414827027
-0.4500378024920196
-0.3780883475053473
-0.40689339792291324
-0.3866198783546888
-0.4417192092579129
-0.4016114840718495
-0.44546590487516013
-0.4204944898321293
-0.5135245939796903
-0.42585229912144723
-0.4491017900431094
-0.7121011111111112
-0.6820867710963903
-0.632615654504828
-0.4337131747211991
-0.2090164255197929
-0.13532252324860508
-0.6910971929462021
-0.6775704750732706
-0.570270409020777
-0.421673043022021
-0.23186963692727455
-0.5990332434387274
-0.5413669267402236
-0.48579183925018815
-0.41464824475930234
-0.5107827584900458
-0.3948624151111291
-0.3602941949201797
-0.24881710862710052
-0.4949669498708005
-0.4431233333333322
-0.6605432
-0.651769196133948
-0.6384479776136783
-0.59380473458932
-0.4284868345758928
-0.14193412487740048
-0.6505578473653674
-0.5570710966333933
-0.54696841869213
-0.5537347652084091
-0.5434084692937766
-0.4461323434591656
-0.5742926363358964
-0.43522903253113854
-0.44998127953433936
-0.4395129760416665
-0.4778917524938843
-0.6095677054818821
-0.40529480000000007
-0.4642759746807206
-0.363034444569432
-0.42069239454432744
-0.3519835111111107
-0.375171582003524
-0.32626877385134617
-0.4330867200000002
-0.37540039611821624
-0.3598829777105339
-0.41181426431892887
-0.2761655555555553
-0.4565711005579666
-0.44144057697926514
-0.34422611950278265
-0.42345599583333304
-0.3746639629790369
-0.3244194706238542
-0.5072420053748533
-0.379378599343477
-0.4394483933044016
-0.4884220500578706
-0.36329097676388505
-0.49301929084211543
-0.6293565642460744
-0.4631274151821228
-0.44724033031902627
-0.5894153182475718
-0.4640873760000001
-0.4382182870300199
-0.5362778094365473
-0.601597245584692
-0.47587943385425996
-0.4919728934391296
-0.6332119111111112
-0.5362305988840668
-0.5443074854620124
-0.5468700000000001
-0.5107787822746451
-0.43707083150211723
-0.44146173896112956
-0.6597488737342421
-0.38051766682909666
-0.35485591228387303
-0.42407492946056285
-0.4646238924666845
-0.5697099981399963
-0.3115577261886014
-0.4199955972838401
-0.3904620622400305
-0.5133881510416667
-0.481493537997116
-0.4182528829748032
-0.4177771388716676
-0.5064430515998727
-0.3279412000000001
-0.2699517296962183
-0.6299479999999996
-0.6804433011423415
-0.6899403444374137
-0.565421340187824
-0.3939536099096983
-0.16326382549708354
-0.5336166439346979
-0.6308434870630193
-0.6017470242496098
-0.5196495942623719
-0.38427137949989615
-0.4574701754494728
-0.5451440279652414
-0.43966591625176205
-0.4316457110335315
-0.48272432465385423
-0.46191633299018037
-0.2998358039120083
-0.39249729059458033
-0.5600595195865631
-0.591542
-0.6184947724736515
-0.6310855713724766
-0.5960255824735299
-0.6153425686840532
-0.5085799795883491
-0.348403860150206
-0.6692140385109129
-0.5488805731926583
-0.5243154019097224
-0.47097686617729034
-0.49175575558309187
-0.5129018770012219
-0.4258203176962719
-0.351318732630709
-0.42488640690225243
-0.4717760945244153
-0.49518935459684377
-0.5351246433147353
-0.33079266666666657
-0.463525409253773
-0.3960336389597873
-0.45507159293708793
-0.3702254399999996
-0.3100890560140681
-0.3960595594131015
-0.4678934764868778
-0.3923711316031435
-0.4174949596612485
-0.3991474350548702
-0.3310471626369073
-0.48952773626726026
-0.42562069869867564
-0.3941855654877509
-0.4742296996527779
-0.37146914695149574
-0.38048098546091785
-0.46139080425308454
-0.3936155226865054
-0.5223238202107877
-0.4585333564814817
-0.3258680356677963
-0.5296478613541405
-0.6343641524269062
-0.4926749043796212
-0.38346423227307974
-0.5168460139673776
-0.5469438666666667
-0.44034967803137
-0.5134873102279539
-0.6171144083108131
-0.4687395561293522
-0.39417449592187004
-0.4955838513191437
-0.6037570419508161
-0.557553887705109
-0.4788866481697398
-0.40827723757702833
-0.305948250969065
-0.47333178606683995
-0.22819425026807771
-0.352563255740985
-0.37757781447947547
-0.4935558251777871
-0.35647187281581855
-0.4054723964270537
-0.3925754706542928
-0.5120047328937762
-0.33544902792072234
-0.3578219262441709
-0.5048953871323266
-0.5808149077697867
-0.6074461888553623
-0.5404214025757882
-0.4670562131252183
-0.34684400792307024
-0.35562999526604155
-0.5182686927250794
-0.5362278524661638
-0.4072992237421911
-0.41078793639181654
-0.3154168030668103
-0.518022383582736
-0.3994275189141909
-0.3073127906666575
-0.42151555287031045
-0.5199248975184093
-0.33783420138888826
-0.5215083392646785
-0.5322271359699634
-0.5870794471998345
-0.664467746021905
-0.5667221761259816
-0.49382903229511105
-0.5012145112850791
-0.42245444520700154
-0.41860026133875466
-0.6726584308741471
-0.5912968539912192
-0.5189938822690459
-0.3644120585035288
-0.3868458575325484
-0.37899622248957204
-0.3420072540695705
-0.29982563825583797
-0.4371892971508571
-0.5407100199039269
-0.5489249544831959
-0.4817380278294419
-0.45196050836949647
-0.48669304478126746
-0.46759649484521343
-0.5184552366890885
-0.3966765422745746
-0.35524403304853985
-0.4350789410467773
-0.5070433342508783
-0.4329970249562251
-0.4895341753866875
-0.47611196966667885
-0.483214289109319
-0.5003073931240631
-0.4195223542302126
-0.47416630017446276
-0.5118936669820294
-0.4001600908369714
-0.41073062496580887
-0.417201838123984
-0.45537541531996933
-0.534547608925312
-0.43007217007296333
-0.3264811150253577
-0.5362234524036776
-0.4996324302541849
-0.49137697468849356
-0.3766162695626029
-0.45457858323093464
-0.5171827216532349
-0.4687605633735262
-0.4793148450265328
-0.41940828877401676
-0.3899296987869205
-0.38271550733622567
-0.5116959052329405
-0.37743706867917837
-0.382512321064376
-0.31479237840287416
-0.3024262209084146
-0.253046518955137
-0.3954724841209742
-0.32141544521663284
-0.43953894530441256
-0.338739926017772
-0.4100258449872629
-0.5078847558035394
-0.43793472528654703
-0.4907486427924481
-0.43931200004048493
-0.3278152219514461
-0.368172966535461
-0.29165399753761667
-0.3711038338438328
-0.49740287523329313
-0.31517319839578667
-0.26402867931390744
-0.25862673628340316
-0.4583797093517313
-0.4510943446751186
-0.27811915788385994
-0.42104869373267534
-0.5386164016091647
-0.4552843151041666
-0.5564940998220064
-0.5262600241532379
-0.5517068629882209
-0.7332780000000002
-0.5611279243680093
-0.41888549111031453
-0.4013408335102005
-0.3444980305572774
-0.2996829631082342
-0.622134991044981
-0.6498135632463261
-0.5666404354359679
-0.34223637783778843
-0.35269571151890866
-0.3346502598798052
-0.39392853041872655
-0.3088585634610404
-0.523706302279867
-0.5746854359375
-0.5582850268730405
-0.5896050804839145
-0.6702738171109734
-0.5663602067147196
-0.49538276280790033
-0.5261453816491012
-0.4914656833918845
-0.381749227922294
-0.5128905559296594
-0.4992573920000001
-0.45437435530936393
-0.5207765491087061
-0.5862994917142198
-0.5170337287318304
-0.47369271568505883
-0.42558814474064904
-0.479443055364919
-0.5408909922698388
-0.411594407110563
-0.3831882771004111
-0.3916287962982538
-0.44248516239701163
-0.5220192173094538
-0.4508523457120491
-0.34778142666212825
-0.4159773806571606
-0.36258325270351094
-0.39662733748201445
-0.4814848461160248
-0.4603235960570367
-0.427600784835595
-0.30826998718501375
-0.4363221091500502
-0.40743467119928317
-0.3963458703255362
-0.3546045266326488
-0.41588368777082413
-0.3217492120922767
-0.3813198358818021
-0.4248987851208926
-0.4525472914255646
-0.5958866666666655
-0.3491601593754164
-0.3941754647281079
-0.4190930444076704
-0.2671042051748494
-0.2557508467085277
-0.33551231370117934
-0.2607885133522618
-0.46975239439947875
-0.366295191687757
-0.2407198666666663
-0.28558145009299446
-0.40656090091438446
-0.5198646300341979
-0.38600579417234965
-0.4790095945443283
-0.5370710132703936
-0.5427053953608273
-0.5637223767126766
-0.5582863909043926
-0.5194700000000001
-0.6965379999999995
-0.5997955041643409
-0.40802346429395087
-0.3793280174293147
-0.37724509523455274
-0.30927331481988724
-0.6238153736479122
-0.6289261458242913
-0.5883178454861109
-0.42139665244853935
-0.370844266318122
-0.41424806689256416
-0.4040382786903094
-0.424117814482069
-0.5610292273196938
-0.5376500798611108
-0.5548993380965683
-0.7888516339286848
-0.7040362167803264
-0.6798314167800169
-0.46021571444278225
-0.4864117474684851
-0.5555643466666668
-0.4794740416838739
-0.5727559979334577
-0.4706251466666665
-0.39941957999029737
-0.5380637506042429
-0.6012845210737318
-0.4312106587424633
-0.42905897582145064
-0.3743364306155803
-0.4416195335370794
-0.5594297036967971
-0.43127220660763155
-0.35280256664600135
-0.3512622957023264
-0.3806237829661658
-0.5389811982289743
-0.5148296184274502
-0.3571889598368995
-0.39798766615218456
-0.543562826741809
-0.46967297658193824
-0.3564741361480976
-0.48647844424633213
-0.4893451157967264
-0.3981666565503446
-0.5295943518082253
-0.4373675380220882
-0.48683221316983455
-0.6096866666666657
-0.34472992319231577
-0.32801084384137885
-0.44507564559778184
-0.3393144303297158
-0.30370032651374185
-0.3780805607219136
-0.23231327441735353
-0.40614893607609365
-0.45712987475312755
-0.3491797600000001
-0.3263380987807399
-0.38330487883813896
-0.5006510304768454
-0.4985882912863007
-0.5134560825239385
-0.5001746174768124
-0.5507342279781359
-0.5144795080910162
-0.563431865633075
-0.48010666666666657
-0.5934327063442865
-0.593963983163521
-0.4257697553461041
-0.4019771130810106
-0.4282174443216522
-0.40972536949520294
-0.7213615396598119
-0.5410169689980547
-0.5530474609374992
-0.5032741205844947
-0.4418572556787321
-0.4287223628266898
-0.45840499965588294
-0.5601803185616862
-0.5356514145484605
-0.44798319964632033
-0.6124559625015104
-0.7936513726558091
-0.5510443772609827
-0.670625904892844
-0.4415125079089139
-0.40341973992144115
-0.5517265777777779
-0.616898838084908
-0.5409336378039543
-0.4086938130853486
-0.3189971091039841
-0.5258008475102668
-0.5484932251062756
-0.44023999999999935
-0.37982511839290917
-0.2785058633980319
-0.43476684638578983
-0.5767072519156434
-0.5187229142124944
-0.2817770896576829
-0.3821082243464389
-0.5558420331465754
-0.578372604166666
-0.5817787941723498
-0.4969604064578809
-0.35837757331265996
-0.5530432000000003
-0.4658102421103723
-0.5079025025831785
-0.499507144726872
-0.37198568879966193
-0.3123031523300268
-0.42745095526010474
-0.4195732222088087
-0.42369729324240535
-0.3349814202080727
-0.26214181457194097
-0.3431764856090061
-0.4526240586927955
-0.4492901138665016
-0.31781809550476386
-0.37730910908301135
-0.4023572746350126
-0.5168630401283386
-0.4623359107378278
-0.431428371993075
-0.4654654453125
-0.3998895637257936
-0.4956534419433411
-0.45560999586691475
-0.5598704649721017
-0.5006419563059245
-0.4395880784660164
-0.45160319003627886
-0.46172700805791905
-0.43985383182565635
-0.7199803277892639
-0.5174720557176241
-0.46985863133434863
-0.5332726810324909
-0.560161821227526
-0.45820384003495307
-0.6046562423954623
-0.5971496466763105
-0.4717758869478174
-0.4010793771077121
-0.6184651874146305
-0.5908897789747715
-0.5130859999999999
-0.5384024854406436
-0.44289828160470185
-0.3091528673633208
-0.4908163961700082
-0.6059116642433147
-0.44892441315590464
-0.29002734482331055
-0.31389796374964246
-0.4873882880912072
-0.5795597534875069
-0.2754316304199181
-0.2753504522110796
-0.44495115663025525
-0.6005493411458334
-0.2793976808052562
-0.4242288155963328
-0.5302133756974581
-0.4679240799999998
-0.42588837775404603
-0.45547950650960944
-0.41482829406902183
-0.3530157776110379
-0.3408522489890624
-0.40805152254004873
-0.46105186260263237
-0.46997811731108097
-0.3199028269349306
-0.2865691963787613
-0.3355637605385606
-0.39618327395768554
-0.5054713701177925
-0.34633144970402835
-0.34996554078989006
-0.33206318968965315
-0.47544500805951634
-0.4086741882526211
-0.34007899237054057
-0.35526914930555514
-0.3080950826147493
-0.39893333758336263
-0.40211778363298195
-0.5846157375490807
-0.44194358485517715
-0.4274916532288742
-0.4940769877728706
-0.5230199600247983
-0.48503083874291547
-0.5800059903293286
-0.5569377788204708
-0.42140487951491146
-0.5217117967864288
-0.6009771997520145
-0.5682673670906216
-0.6127266765548104
-0.5437284374920637
-0.39159090671129326
-0.4309825414465587
-0.5213173524863604
-0.5044118660880348
-0.49672213863617193
-0.42544919802286585
-0.3000513045600898
-0.3707772057449892
-0.47035706013027667
-0.31022665183893483
-0.2492828044637321
-0.35540738456085746
-0.4876870854684912
-0.22637133267698498
-0.3526867169493686
-0.43856005113411906
-0.3709150757143784
-0.41310163517255644
-0.42627070778894416
-0.4995907157126132
-0.37558630175138324
-0.3792495827164017
-0.42975094904402833
-0.5076903266894058
-0.5191046804661235
-0.4959346273392375
-0.3741524212386313
-0.3587721826126542
-0.3930664855639446
-0.5756455999999998
-0.5245923183098382
-0.36046346412361374
-0.3074622785753999
-0.45683417234965895
-0.4618288537841409
-0.26975341292930377
-0.29658232151852154
-0.24952386771917998
-0.36924575101834683
-0.3600355032031411
-0.6046508872351418
-0.5187851622549485
-0.4584264667900892
-0.5125909445204985
-0.5465339859061783
-0.5852299687552842
-0.5519762936557137
-0.5769256076247268
-0.4576804060397583
-0.5083328474846235
-0.5465187468099851
-0.5591151052512512
-0.47069541397458897
-0.4699704156684928
-0.3543769917215729
-0.4623052913385551
-0.5141680186246624
-0.46687765218687544
-0.34246008242314124
-0.28880505463938816
-0.3549094389184276
-0.23369350201877606
-0.3082691319813949
-0.41455162899262005
-0.308240170820353
-0.4187537592477784
-0.45493655838777375
-0.6690213443583114
-0.5432933714307743
-0.4822695976903935
-0.44468072319146207
-0.5392863730990526
-0.641413473031618
-0.7364006889268008
-0.5825683693187025
-0.4292994714299527
-0.3865352186772244
-0.6467149333333334
-0.7419022980806779
-0.46922583673071666
-0.31553513780504083
-0.4241585775895813
-0.6103634090477176
-0.28686743629377326
-0.27917256765909143
-0.2551768455715546
-0.48278387361998804
-0.46262963927648515
-0.68384
-0.6475387920208777
-0.5487561760583953
-0.557057767508318
-0.4769305263575922
-0.5801217517737285
-0.651423007998016
-0.5163246518572353
-0.48406681243063376
-0.5114520701896671
-0.40716179420728343
-0.3921090106988247
-0.4043191508999613
-0.3670927945708133
-0.5347642447916667
-0.4140661804091756
-0.30975974295262704
-0.3338840794335782
-0.3059538061555202
-0.40119184
-0.44742676875387477
-0.805436666666667
-0.7295206600200683
-0.633003776302166
-0.4763752193076291
-0.45416837228171464
-0.7206334407935524
-0.8456163814837776
-0.7561099474705181
-0.5490936706369959
-0.37042639668992655
-0.5726064029758222
-0.792325306881587
-0.6012175176040526
-0.37741986492340734
-0.36932138314354573
-0.6526406478611274
-0.41836126492034426
-0.3152924496979837
-0.4134648183048067
-0.5511787100775196
-0.55127
-0.7811044584289172
-0.6145990716996028
-0.5910647040588155
-0.4302981125250031
-0.41075118910537073
-0.611773697916667
-0.4644031421986939
-0.5011072526782611
-0.33768664531346554
-0.4320846566593381
-0.40296344142246393
-0.4410386484810915