<?xml version="1.0" encoding="UTF-8"?>
<VTKFile type="UnstructuredGrid" version="0.1" byte_order="LittleEndian">
<UnstructuredGrid>
<Piece NumberOfPoints="1536" NumberOfCells="6750">
<PointData>
<DataArray type="Float64" Name="f" Format="ascii">
-0.5076094535722407
-0.5127
-0.5249430628748443
-0.6342248752764177
-0.48675100502201
-0.5219625232287605
-0.6257507161808163
-0.5382470572916667
-0.5013402099586839
-0.6626735992334024
-0.583575539367638
-0.48454427025091645
-0.6084324732345464
-0.5642888
-0.4363718487610302
-0.5677271340089693
-0.5265589088654681
-0.4382775719089642
-0.6447212187485906
-0.5716813763174207
-0.6131100982040835
-0.5953511575028739
-0.7273218226906383
-0.7012582409389639
-0.6100175181830038
-0.6882590907032872
-0.6019790178275785
-0.5849347052290631
-0.5874494672452989
-0.5206364541141416
-0.49600066557517214
-0.5433582163565126
-0.4171693167811978
-0.439529987447247
-0.3011955860715029
-0.2868671410310968
-0.6709772812066256
-0.5875212182269064
-0.6240335058521698
-0.7134318676236875
-0.6580207570734671
-0.662670018824912
-0.614823809191469
-0.7589089863608183
-0.6574375969025347
-0.6057941375060584
-0.5985934304300398
-0.5102198928704277
-0.5458058788545498
-0.7098096395415422
-0.48344772685381915
-0.5041540705170212
-0.4589363844324877
-0.6117650863669535
-0.4108159261427629
-0.3501859751575474
-0.4260165696166726
-0.29111736478804445
-0.21193185703657788
-0.11757168585297155
-0.6616966862649328
-0.5284329076255421
-0.5405376623280541
-0.6631735744204771
-0.6808650963819288
-0.5272263713609469
-0.7107705935888536
-0.567175347191691
-0.6614357084249609
-0.45370006209877395
-0.6297078821689763
-0.7020903306468275
-0.5022771520740892
-0.5744041856097666
-0.3862844716676994
-0.470746971587886
-0.41155302681496014
-0.44324074813969666
-0.5231142658552023
-0.7481465608978376
-0.44038941433958095
-0.35961117151960864
-0.3853115473226972
-0.675331082583135
-0.2929605163312949
-0.23355863000006502
-0.45948451296662635
-0.14049441162041962
-0.1902266214507131
-0.042981274220732155
-0.5744188602748722
-0.4377900000000004
-0.4179110184553707
-0.6484322086762684
-0.399258268229167
-0.5963096364015541
-0.6190127105846067
-0.5364532947648827
-0.6285349855478214
-0.3600435885513537
-0.6926044988219314
-0.50057590855388
-0.4942018879327678
-0.5258470803231513
-0.3143016000000001
-0.6694411325077874
-0.66331
-0.4169605701820067
-0.45514266136977527
-0.4409545852900418
-0.3196702748501759
-0.45948961324517873
-0.3992899445328162
-0.3543018154653997
-0.5518520336532889
-0.7133232938599211
-0.36518882410876413
-0.2714309091485188
-0.37699228974472204
-0.6458565928819447
-0.20191221753430413
-0.18703776157001198
-0.4503370634428601
-0.07091494059410806
-0.20265186666666665
-0.07805197520148754
-0.4762169596516968
-0.39790000000000003
-0.391835408518817
-0.5746050070583236
-0.41127159635416666
-0.48076799956192223
-0.5557742053502773
-0.38303930502169875
-0.5197991918091246
-0.5103166040624665
-0.6678275776805883
-0.40280859256226553
-0.5223257682460881
-0.44690256778166676
-0.30198232
-0.6924582586920732
-0.5680188030184096
-0.3662088770775546
-0.47761087476556224
-0.3726129571661812
-0.24763608183508984
-0.68493938047526
-0.6970400000000002
-0.4526766184435906
-0.36469801846542205
-0.4295786568696572
-0.42535654302931425
-0.4405830013524727
-0.33617880393124816
-0.35714251787416446
-0.5642193586288992
-0.6774791078182156
-0.30178229174160703
-0.2532191864616555
-0.38489580441353405
-0.5938366770833332
-0.16959639119759887
-0.20117779921328735
-0.45307765840049624
-0.10526166975300179
-0.28052472000000017
-0.1845677433353999
-0.4735374577469153
-0.4240894833643315
-0.4671946538102833
-0.5449304444700332
-0.50543935440588
-0.3665992577667572
-0.5159194157742847
-0.4406331804290338
-0.4845162537032402
-0.37014163700863983
-0.39357454589159074
-0.30296985050630293
-0.5057503294512119
-0.33779428792644856
-0.5779714387185545
-0.7038046593648827
-0.446460783800888
-0.37498463122729114
-0.42451309021808314
-0.30874045034906056
-0.20564573852188
-0.6728505630437925
-0.6283246661586523
-0.37163948053376056
-0.4079621850621191
-0.3663587260177727
-0.3475734378329473
-0.6293355942990982
-0.6882636681132464
-0.5035266397504864
-0.3571148943255611
-0.40652082950869217
-0.4221543544697646
-0.40638438193086307
-0.3295772392581356
-0.3869635547649395
-0.5352355347341162
-0.6469016206648551
-0.27850047762284147
-0.27448927241165477
-0.41727257710703275
-0.5748697142695309
-0.1816019528937165
-0.28981472755740184
-0.52130416324848
-0.2028247005268319
-0.46993114920438206
-0.390343453976251
-0.506581222310727
-0.40236087414755134
-0.4547961217408633
-0.36969020954742776
-0.5553572259217615
-0.5045525716226561
-0.521513801116885
-0.4546893742110338
-0.4920728610772615
-0.26394529448233117
-0.40346229500829867
-0.32167776371151063
-0.49011685011161515
-0.3190476997540148
-0.4141733521141448
-0.3031518244825007
-0.21803996662591224
-0.36269829498532213
-0.4050945566929609
-0.3198784530531081
-0.6557889171316386
-0.6388965364744781
-0.5338116684518449
-0.33092463376740366
-0.42507243693425495
-0.2885867834759246
-0.2740457225152927
-0.5893517450779239
-0.5678041878619774
-0.4259014830067223
-0.3866220923884127
-0.4099345294482333
-0.34813001112832603
-0.5241630107079517
-0.6212905569332509
-0.47704270757963724
-0.3828484753741908
-0.4073282600155856
-0.42228057285575077
-0.3849899569243372
-0.3485979377144038
-0.3934482022580281
-0.4763162935860037
-0.6237066932979556
-0.27358333427179743
-0.3094799557429218
-0.46621028239394297
-0.5586419014224164
-0.20614635728293565
-0.46275731632983436
-0.559157461665185
-0.42034654408682276
-0.6329128615003095
-0.6168391666240666
-0.4658223119582517
-0.40838599999999997
-0.41908247516895036
-0.4885607963548508
-0.45686354947916663
-0.4541912987494712
-0.287072636701798
-0.5474160454219968
-0.481758460455645
-0.4462195858648483
-0.4202905666726499
-0.3614523200000001
-0.5150764772649546
-0.41114200968089837
-0.32151653716332634
-0.3227011923383303
-0.27030651084934904
-0.38174891434327834
-0.48379315393563377
-0.2963882176040605
-0.5197097196390431
-0.2277326369213585
-0.31328997553339466
-0.42709917441671413
-0.3735968185952239
-0.4021764155667189
-0.6432813818970863
-0.5548446696635373
-0.5397674741952064
-0.335990308557962
-0.45222961214700835
-0.3601614139615625
-0.3342228199329456
-0.5087439098566072
-0.4530173804174447
-0.42513229986502893
-0.3608191375560246
-0.4707586835021011
-0.3624724135959035
-0.46202545643735266
-0.587924
-0.3840362178092552
-0.36898169621707383
-0.3982196170558659
-0.4452420318013542
-0.3661531065235492
-0.34660614298822073
-0.3645781980335692
-0.4154748714886642
-0.6892774322028643
-0.2659053346903589
-0.3731100530836439
-0.4585397782532142
-0.6522944270833334
-0.3350635638534469
-0.5812979845940274
-0.6430499826410417
-0.6471158141284248
-0.7268307199999998
-0.7262505232486051
-0.5249124029181399
-0.43774333333333343
-0.3756562591191846
-0.5179356713670364
-0.48798074854430235
-0.41072925347222183
-0.47057889313648943
-0.4597392426121099
-0.5535943624195062
-0.39292389868713734
-0.35107640421574754
-0.5487838243435799
-0.5028952627450168
-0.4251434369098383
-0.43203533333333377
-0.3227177204654143
-0.34135075222153377
-0.40532883185030966
-0.5743786242589423
-0.41887939781115624
-0.43771777777777743
-0.21370044489912962
-0.35846480807422415
-0.4534806805606559
-0.4854720183168871
-0.34989527262832265
-0.5753755544533989
-0.35296438813999714
-0.36525692614395594
-0.48071095075939985
-0.3224466883680559
-0.4671852036378114
-0.634111633470663
-0.49558776006098554
-0.4884071482527919
-0.33260342931509146
-0.3833022322105124
-0.43216343027898324
-0.3721257462087472
-0.45749954570442425
-0.36529092586539647
-0.3444835353614897
-0.30631543222502317
-0.4494342666666669
-0.39102340044228884
-0.48476319744004687
-0.5674199999999998
-0.27895500248620836
-0.29876970792927265
-0.3665368324364539
-0.4437790032375836
-0.3568376399385706
-0.33475155561646724
-0.29951106021057333
-0.45026567264973133
-0.73743032343398
-0.31412651539249603
-0.413763829046255
-0.49699793718970925
-0.7492386414930557
-0.5135425070820986
-0.6470440512352482
-0.7336656902252532
-0.7482617947512221
-0.7742801333333332
-0.7499572680305848
-0.6207653935285656
-0.4803892291795821
-0.3504343255711971
-0.6168980086340036
-0.5972080781153131
-0.4302212699330112
-0.6209497417459083
-0.689487626575739
-0.5595074469401498
-0.637128585939336
-0.656159870801034
-0.5813208569994216
-0.6305662212361589
-0.55239
-0.508632962985926
-0.6320448300163272
-0.6443951099400699
-0.524892085976351
-0.38718615668806405
-0.4907124836710454
-0.587393861651419
-0.5002000269096866
-0.49956025190553005
-0.4691746883593044
-0.5316745360611692
-0.48949118900954486
-0.6103777446143915
-0.37516316546250733
-0.44035466666666645
-0.5338647815743885
-0.5823141335848662
-0.39012168672353315
-0.37766736162467923
-0.44970334393893724
-0.279249800705755
-0.3417482565902042
-0.4520007610613897
-0.570980873633704
-0.4093709034658073
-0.47394466666666707
-0.34623660393831956
-0.39379130748830243
-0.4779409517911724
-0.3833870581597231
-0.37200255998512044
-0.6141478046560709
-0.4364576623550051
-0.3750586945921022
-0.3975547925191163
-0.2538444522569447
-0.4568896803516013
-0.6040777458638082
-0.413248893573052
-0.40477165414704275
-0.26909941280794397
-0.2648362988220709
-0.4184761600000002
-0.3427269825045735
-0.4101386304861491
-0.31485090690374556
-0.23612056099774661
-0.22819595199348094
-0.38403506666666654
-0.4089441698698077
-0.4929709642182895
-0.48430328166976716
-0.24538074139021318
-0.2258236598598983
-0.32183479431204914
-0.43653278239305643
-0.3486994888589257
-0.33265562135721255
-0.305860571842274
-0.5135551657104892
-0.6080077166488255
-0.40979417148961866
-0.46306243373424333
-0.5983731446406081
-0.6339550348729086
-0.6176134616333485
-0.7497362915934717
-0.6453613265897173
-0.8390392046286953
-0.6828404469518504
-0.6625848090651664
-0.728386581593993
-0.5045929102375104
-0.42478410899317404
-0.6444274757642469
-0.49350147473635486
-0.5363328969941498
-0.5751536460939334
-0.47860597254611886
-0.5788347322795541
-0.6165854477442936
-0.4528863454495973
-0.5349055859375
-0.4878636531587058
-0.6747821331825338
-0.7151869146517872
-0.6135808648481091
-0.611852759120105
-0.5084253754828362
-0.5297856603968301
-0.36013867189763676
-0.6225009366328362
-0.5062610801838295
-0.5347062264437595
-0.5768731574705516
-0.48928316537800437
-0.508035233368143
-0.4179720088435774
-0.529337038695204
-0.5553257287470376
-0.3838550499414474
-0.4240731999999999
-0.44864305629797113
-0.5779537758841878
-0.4114819105946761
-0.367908142495006
-0.3997157911763179
-0.37659238073296314
-0.3938407142715439
-0.4679167120192857
-0.4428227902469961
-0.3223696238328477
-0.4758174526417313
-0.47352698340859606
-0.3783698604917822
-0.40821454185530476
-0.23938191354166674
-0.33231455511090774
-0.6153994574853578
-0.38324358373906836
-0.36834358327478095
-0.2717789967761934
-0.17913722366135765
-0.39014546468880157
-0.4906233081215126
-0.3283049479920091
-0.3231339388222522
-0.19591352770049297
-0.17204928674928055
-0.3831694719999999
-0.3388084605965313
-0.4409582283797047
-0.28124880178044465
-0.20486377306536094
-0.2024344559957668
-0.30148653377419543
-0.43466476875387455
-0.49458299616303253
-0.36728863608183504
-0.2840826782532089
-0.2501442549571082
-0.32011556881004144
-0.3651376915473446
-0.35687567432021156
-0.37173033368877856
-0.41931406731919796
-0.5218148306673468
-0.4446899571468827
-0.4768337782374222
-0.6021926429014269
-0.6133875247921813
-0.4970751460262645
-0.7454519532009881
-0.7521855673841249
-0.5397795428293212
-0.8417611742754177
-0.5436995650340979
-0.48310681144636575
-0.6826911045670593
-0.5326928303342817
-0.48965098009937885
-0.5711728155093709
-0.6067529885615012
-0.4601529773337916
-0.44369642276549065
-0.5804529359586436
-0.5582526000742188
-0.4524555916758423
-0.397801740102862
-0.5653968722876628
-0.643191804474187
-0.48097235124048704
-0.44571818883187225
-0.5635410894253957
-0.7367954520903318
-0.7629026100433974
-0.4215941587104765
-0.5831839924150232
-0.49487825574041544
-0.5460351542367458
-0.5396148752634841
-0.2675061262657579
-0.5433269497155157
-0.4706060701825336
-0.4795245181750574
-0.5392149500170914
-0.4378177809662062
-0.4637983018952027
-0.4525947453673334
-0.3925395380665362
-0.534026333256376
-0.42869205236088875
-0.3825725616862985
-0.3850896945649928
-0.32397503493998486
-0.4712260138046673
-0.44878264209377033
-0.40117590150857635
-0.4332885013621555
-0.48335290011783005
-0.40727800522421975
-0.4387441463216415
-0.28995508415349297
-0.2365297581707647
-0.5079628766274027
-0.44554134248377414
-0.3915332200179094
-0.3321760864978795
-0.14580027973184437
-0.3095335777609962
-0.536567127505683
-0.36253590189832735
-0.3994964742550115
-0.17685635373406816
-0.1730765361704161
-0.35675801918931405
-0.3814887735069226
-0.4212861084174299
-0.28793162790262355
-0.23237970713484649
-0.20079999381702682
-0.28771460512502517
-0.40343203888854084
-0.47565441354705457
-0.37377823570837815
-0.26533181960696967
-0.2771883999386573
-0.2947874067782601
-0.33165579943633144
-0.5306069834078587
-0.30003917544947284
-0.37519395663049426
-0.37450245800549625
-0.3621433955775987
-0.2963361714892621
-0.3830969857736535
-0.5010784468691885
-0.5001359044505684
-0.5477847171841131
-0.3835407024318717
-0.6008998007861838
-0.6704119844810973
-0.5761246975764639
-0.49056647122769886
-0.8091222547165474
-0.6211390074074784
-0.5681096301615687
-0.6611030762607047
-0.532474423475925
-0.4135606557294928
-0.5038851952882819
-0.47048244280973667
-0.44718356102178386
-0.48071234148246184
-0.5015923312868218
-0.49918684104887395
-0.4215151397907426
-0.3941592860179573
-0.39653013178566604
-0.531806
-0.5369802210303835
-0.5149809233156634
-0.38963580433028366
-0.42770049053494846
-0.6444967398045122
-0.6437988136137514
-0.4755422731915591
-0.7115024063601133
-0.7091869821073712
-0.7089521058069844
-0.25027533333333374
-0.481827951289546
-0.40563623479439964
-0.47819217360178873
-0.4739141454303071
-0.39223815061603806
-0.30815917172969665
-0.40451959162585044
-0.44662060628810124
-0.38520555175782456
-0.4745953338860988
-0.4285532514773643
-0.4422890438379916
-0.39882174071815507
-0.41131198960869386
-0.4563539036458338
-0.339426863117474
-0.4011177506875561
-0.4514526513742503
-0.25118426362300167
-0.36344842668993665
-0.44516130646827873
-0.40741465633395335
-0.44427012511300507
-0.4508528937298682
-0.4373059199999995
-0.4173572863576022
-0.19383390055976427
-0.2921254889067883
-0.530342
-0.4421221520975403
-0.4676791353172139
-0.24923426621730013
-0.20457416046031088
-0.37704922136110913
-0.4601657463663293
-0.44693175253631884
-0.3337719231638419
-0.2092314461800792
-0.2957286805555548
-0.37849249174974964
-0.46451945629684926
-0.5847981197655001
-0.3716129000595527
-0.3334330462372784
-0.32975066480677806
-0.23721684193428386
-0.33528863873795306
-0.4121533321809692
-0.5558254195826837
-0.3396277254214961
-0.3840777404397209
-0.3652786399999999
-0.2119406363364056
-0.5155224288839152
-0.3336592930232556
-0.4996045103482955
-0.4378549841861114
-0.4447633489012883
-0.3288332192601779
-0.4888720747930438
-0.5848413672262983
-0.5111424001608403
-0.5768993358650684
-0.4088732437757399
-0.7203083747041353
-0.5803387555880639
-0.5816221017458578
-0.5296353209531112
-0.6728473106750595
-0.550654123264719
-0.621079055757564
-0.530591756058758
-0.5962914940361754
-0.48311354524783257
-0.3091255555555565
-0.3850422444533646
-0.3696416569985252
-0.4005037977803719
-0.37304830637673647
-0.47517954742715446
-0.3805718096025346
-0.4037086254920403
-0.4348777652646365
-0.33553596353156406
-0.39092434166201606
-0.5489592116139697
-0.5629995829159385
-0.564030155351866
-0.37664293240739904
-0.6740420868636771
-0.7231378151407033
-0.6259645456592916
-0.7679143372958702
-0.6587141560723515
-0.6498333333333334
-0.2494044
-0.35173605045432327
-0.3531898607412202
-0.35633840995047006
-0.39355819909038386
-0.37702072855101415
-0.43296146192690915
-0.32041683395126785
-0.3808473278356483
-0.3518089345108537
-0.3461472788963969
-0.39623738112742396
-0.3562990596753522
-0.3506969519154428
-0.40401007301784087
-0.37999339843749996
-0.3189977736937912
-0.49216238269498286
-0.5728951999999998
-0.3315180518725889
-0.28751797370482896
-0.45570775982641026
-0.43101115555555514
-0.3737215656543222
-0.4578096238892328
-0.5365003680000003
-0.3583814041989602
-0.23249586272888398
-0.4679820906441812
-0.5314733333333327
-0.5441919422194667
-0.44563392778508565
-0.2189322409277369
-0.3905113281249999
-0.45961177713022056
-0.5020261877796732
-0.43691761495448933
-0.2324594089297625
-0.3519517430874146
-0.4154432219328701
-0.4098078819440331
-0.6135545469034723
-0.5737949758657789
-0.5038600847430832
-0.3381496529354797
-0.41507866088034717
-0.31668745600000014
-0.21122493787451976
-0.3663579809267334
-0.6014168056900822
-0.38891160170784755
-0.37486068503271425
-0.4197221333333337
-0.2637424416615003
-0.46502593850646984
-0.44895
-0.5747109597837347
-0.40084463010258875
-0.48725853367207655
-0.41660245091961207
-0.6143521927557379
-0.5177104073438877
-0.549851817116536
-0.5799978097101129
-0.4663418823237646
-0.6489718214260599
-0.5398441663823691
-0.6194921115046271
-0.5470073697916665
-0.5595265171855349
-0.5904234155070204
-0.6137954990700559
-0.5637983123737362
-0.6007607999999999
-0.5383585864848109
-0.2508226666666669
-0.32858064244001456
-0.355022438472518
-0.3650512590519536
-0.279322234164255
-0.4104002299124493
-0.38449265054763254
-0.4462754534763249
-0.5084972996584445
-0.42105368866188536
-0.26900410390576607
-0.6527998239305645
-0.5937450362803657
-0.6985819665986868
-0.43864516602838316
-0.771114819177516
-0.6719161235821717
-0.7249854865201143
-0.7108701405336147
-0.6875910389664089
-0.679768
-0.3811052219466839
-0.2947581068468805
-0.3282098774290849
-0.3229250581171519
-0.293510635727909
-0.31160354661060896
-0.5160866005314287
-0.32690337532744346
-0.3495432361111109
-0.3537663436992294
-0.2720881604993372
-0.2944741119441639
-0.25054772488063476
-0.3683130313701178
-0.4377577751601571
-0.35234415756365345
-0.35350321025508236
-0.6250598295102294
-0.6276466666666668
-0.5169714233038155
-0.2577251822841627
-0.4493263126432438
-0.5400984533333334
-0.3834749635822568
-0.578280427361025
-0.5507656241124194
-0.2678116002139183
-0.3795805987748196
-0.571464142393618
-0.516789291175863
-0.5524788780539954
-0.32197360619254317
-0.2855178266054104
-0.5081762838541669
-0.43463240224821204
-0.5345201905440742
-0.3280313078662757
-0.24912207241992138
-0.4413609702417856
-0.3562387267119302
-0.39197278272859576
-0.58101084373555
-0.4906356106303597
-0.5069829835643708
-0.24272843480162395
-0.34074107074007554
-0.38928717333333357
-0.23630081238854558
-0.4411468183603037
-0.5351836375447264
-0.4140358596523092
-0.24311203617877966
-0.39375933854102146
-0.3445815713990496
-0.4872533577589379
-0.6012448021597954
-0.4050617961080369
-0.3939169940191452
-0.46576936151945575
-0.5602906859305785
-0.4610233803573643
-0.6232716647977843
-0.6092343516221324
-0.5178126282368122
-0.5949011318620835
-0.6620275135050789
-0.5844145612522677
-0.6266988581478498
-0.598019365329241
-0.3332675084383831
-0.3899669486035877
-0.3918375150254871
-0.40595768284924466
-0.2502389156820089
-0.27830537122755145
-0.4714132280143914
-0.5954980668187985
-0.5322644562961211
-0.5254770739609996
-0.213298368133912
-0.7299909053602889
-0.6757002058682153
-0.6562685152880957
-0.5092076344921477
-0.8120464373232424
-0.635773621971191
-0.677280538194445
-0.664497410502821
-0.7207301277341244
-0.6992644957635874
-0.43666192829096934
-0.35201893361877373
-0.3852604087024043
-0.3471069207911999
-0.2636121480408055
-0.21970082832789903
-0.572810688985328
-0.34080632237204705
-0.41551097251507296
-0.42023431939653366
-0.2876177684232275
-0.19668614910785553
-0.25969483881159267
-0.4804649976441417
-0.5084531316149176
-0.3236355659789494
-0.45216581122859817
-0.6695514152373078
-0.53787530068196
-0.6021656259911681
-0.30171047767649584
-0.3728859545522045
-0.5954203946269891
-0.5190308371593845
-0.6040302105155291
-0.4327007627609019
-0.2349380163707205
-0.47520166281611625
-0.48084495020019186
-0.4168590772886964
-0.4354639329905928
-0.2633425131721427
-0.3631466916257527
-0.4160995517297616
-0.30667095819801476
-0.4340649491941813
-0.30843857486092413
-0.3128008093407726
-0.3613123774123181
-0.18268933971270726
-0.3030664991296315
-0.4998844702067026
-0.5194635585864845
-0.45938187258488966
-0.1718587814860739
-0.17061317915970478
-0.3502004342054148
-0.2878055639370324
-0.5638337164197224
-0.4633709981580269
-0.15881401113021265
-0.28978506786526137
-0.34040506832569184
-0.6704926144334554
-0.48442534772582907
-0.26157890359025243
-0.4156936920930852
-0.36898773256572076
-0.48729187839030114
-0.685314065492876
-0.49440953516467084
-0.6126593068402567
-0.586201693943621
-0.3658617042088586
-0.5215855953373102
-0.49198523683063417
-0.4146299794495596
-0.27444032241609734
-0.13238818630708568
-0.46541039803431133
-0.7263324992705887
-0.5448921583848895
-0.49799207527544614
-0.21810376672866297
-0.6292363859278706
-0.7455269696003876
-0.5567299678972867
-0.48867181132465437
-0.6717802123433464
-0.6602640276291308
-0.5940547786458332
-0.6607757612818925
-0.6434483439081589
-0.6443219249845014
-0.43830680000000005
-0.3985534275056796
-0.5271805333112335
-0.4094254558917412
-0.25745451044981754
-0.15529964669999968
-0.5845283822415103
-0.3817286531093061
-0.4600835399481363
-0.5436172083713194
-0.3717650555238683
-0.1741344019729136
-0.38277035045309554
-0.5859875771034845
-0.5033103675815281
-0.32301451302083345
-0.5099835976054566
-0.5251536527111201
-0.34189084686918764
-0.48611779399979244
-0.35834655740091415
-0.32001297619342844
-0.5171029261142118
-0.611333966153924
-0.5039071762532857
-0.3622447839999998
-0.2693867633852631
-0.41849804532560003
-0.3059765452526912
-0.2635276892608665
-0.40080848977061384
-0.27767635322725065
-0.3482854418778512
-0.25893245103746904
-0.16168042003279529
-0.3940481278748833
-0.3161143444517938
-0.3179353658571278
-0.2466117901297157
-0.06645109422488261
-0.2866661181158212
-0.5378512182269065
-0.5489473236345358
-0.2300321379588333
-0.0718839053064359
-0.3075448554742717
-0.2893569107651745
-0.5988862028812125
-0.2243326098355671
-0.17919962922091248
-0.3529831264531938
-0.5794896237165944
-0.24497413272637747
-0.26927821307092625
-0.2808542055963149
-0.5141227203967763
-0.5150888501265869
-0.3439519999999998
-0.5682852173314911
-0.6212943423595898
-0.3907438793425422
-0.25260330159517697
-0.06640797028406437
-0.37712829262244224
-0.699207939112073
-0.5982035812226657
-0.40312864976760204
-0.22031293333333343
-0.42619850402975823
-0.691347939580341
-0.5478457726333835
-0.44855088220706746
-0.45736627092374493
-0.6500403559638795
-0.5780697079084545
-0.6536503435295671
-0.5511828258397928
-0.614234
-0.4424926666666665
-0.4113599245251827
-0.6076705944213855
-0.5280602716763413
-0.26053047027898296
-0.1161012915923756
-0.43801444035363973
-0.42270590894248455
-0.45995024131944534
-0.5886814304501357
-0.5075404070606453
-0.2209985047738665
-0.5374965894635625
-0.5725878594418213
-0.47634830708824216
-0.3462717317708331
-0.41318899537580284
-0.32295087375775205
-0.16782787104773636
-0.3430247071292936
-0.34573241311637837
-0.3265049743748707
-0.4734485333333338
-0.5915057611967838
-0.4852416044637326
-0.35712546666666634
-0.301299563147329
-0.36443388940856564
-0.17312672905574192
-0.24969097364341142
-0.39302123248605053
-0.297275425440306
-0.35733515398383386
-0.19727868434314075
-0.13632031204516123
-0.4794974788179372
-0.3053542226890872
-0.3716889097684053
-0.24583958288860416
-0.09689637943269053
-0.44075771473936337
-0.4252787404422393
-0.12500633531435132
-0.3210264184004962
-0.380509760922708
-0.3833181522174584
-0.16403327053229913
-0.3402556576759887
-0.3393104922504642
-0.16758186255109644
-0.3619639945770223
-0.3377555555555551
-0.5294652050440956
-0.6737016268697483
-0.44657781322141804
-0.21762483358759702
-0.07788501405248997
-0.3125059619756146
-0.5819962231517839
-0.6349456915947548
-0.41248825890532426
-0.25834584000000005
-0.2738337094440995
-0.5792857615035115
-0.5816924421916702
-0.49441044655418437
-0.28331498415650586
-0.6552543117326498
-0.5814144619118425
-0.7227437771715542
-0.4651081436692491
-0.5939066666666665
-0.32681259268444
-0.40222440993104214
-0.5984705222933666
-0.6045584658908418
-0.3626698541252169
-0.12163335439002582
-0.27800946823360084
-0.3430510056842937
-0.427187052951389
-0.566212929974183
-0.5957860540718124
-0.3516281832025529
-0.6535469990077437
-0.5339713700516632
-0.45414683853413257
-0.3105875778069463
-0.3296296299536731
-0.2089060534216228
-0.14767160062015486
-0.30067990774686953
-0.3843203314853508
-0.3142933307900639
-0.4690703555555557
-0.577119888959652
-0.4740825459805746
-0.33082679194875
-0.3986972320775763
-0.4155535475996182
-0.14057129121733794
-0.3770266666666673
-0.3310110510010692
-0.40226985339761784
-0.4614583485194624
-0.21609955415347756
-0.301963266786534
-0.414106792616952
-0.4724411391288867
-0.2946122290634074
-0.28450770833333366
-0.28351450402975814
-0.3059629585695092
-0.4558323552531434
-0.26079226666666655
-0.23005254252057394
-0.24535663773506958
-0.2634447998897849
-0.45077658950010796
-0.6482675917964715
-0.5446035642689678
-0.3012462603309188
-0.1500360148791073
-0.26584932706383846
-0.44466196358069837
-0.6363714980174108
-0.4990356680025551
-0.4125681716470355
-0.23329016881783107
-0.43695875975386644
-0.6596889947238368
-0.5488075999108679
-0.18805234585434435
-0.6181238513053308
-0.6882175078124998
-0.7709716109698883
-0.3043553435257143
-0.46336828890266685
-0.1982758090514569
-0.3132859547643054
-0.5257353277820104
-0.6043928293739763
-0.5262241383917364
-0.2252540738686619
-0.2564380899536261
-0.27734540127110646
-0.31238787005106167
-0.5263858921543161
-0.5972704892250463
-0.5578435034532506
-0.6734194198124431
-0.5128407071433488
-0.34432565990421726
-0.3236610276125622
-0.3801469884253386
-0.2018327331941759
-0.30562399999999995
-0.30959988803268595
-0.504650373921267
-0.35289043021286665
-0.3731280855548676
-0.5297018791116515
-0.34978183838423543
-0.3729576565902047
-0.5321494639866297
-0.45463835045564477
-0.28056015648831295
-0.37294119814595383
-0.5215573117530851
-0.49569750587439637
-0.33035819010416667
-0.5229793262137878
-0.43386995745160223
-0.3533529293242407
-0.29128752
-0.339181123780718
-0.20071819838809674
-0.17292395742922093
-0.33422048388438896
-0.5671920069923401
-0.608342319060993
-0.47696138722531783
-0.31615696946513555
-0.23573326836215355
-0.3069129245784341
-0.5612663202346456
-0.6169659018208962
-0.5824823152717497
-0.29713792187161886
-0.24577557165195243
-0.6679746674997294
-0.6546158406695597
-0.259431370740446
-0.3860148116530302
-0.7797814626736111
-0.5897291065774458
-0.238586319001139
-0.3180066429014259
-0.2089551446579874
-0.2461796725501054
-0.36637684074320304
-0.5707001687009238
-0.6183289660095066
-0.443568919682285
-0.2909244550097636
-0.3353590944079825
-0.24304578007815172
-0.3935043036479023
-0.551698940400909
-0.6574099244442272
-0.5664232207477548
-0.40942703379921785
-0.25105768586424565
-0.4077699835884765
-0.42692063391004725
-0.3370947034511266
-0.3979713737652175
-0.5470398342424668
-0.42742757917792384
-0.2820310892333122
-0.38607637034931447
-0.26812182228834763
-0.457298101723497
-0.543198662965739
-0.48163829994171764
-0.48081392699300657
-0.4797999639303316
-0.45446138443785783
-0.44723630774474815
-0.32381291089068004
-0.2078305160296708
-0.16350327271474827
-0.26781437721586815
-0.40576730051077975
-0.59060591371785
-0.6225962606470286
-0.537401006043067
-0.2181498725420616
-0.2778686090565248
-0.35252548571802156
-0.6494893390299414
-0.7001260799999997
-0.3635061064475109
-0.20749875127384476
-0.4296145632072827
-0.7341549493697047
-0.44539047897987977
-0.22656162470549054
-0.6089193833603507
-0.37784910514832787
-0.38081140291185084
-0.3000791537507751
-0.27561417860465093
-0.2543428494155106
-0.2556592375370635
-0.4536479836687804
-0.584997000854171
-0.5962198094136307
-0.36062319694151684
-0.3856526678703596
-0.2615276567222367
-0.25478391505761705
-0.4481162358321597
-0.5510046423266878
-0.40994462825924893
-0.2686852560556039
-0.25914966221870966
-0.4432432299402454
-0.44101810320492724
-0.5168841201021863
-0.44826168973018027
-0.301425182985465
-0.24222130355558139
-0.3171971775865657
-0.46420770333436695
-0.47666267138211244
-0.4884002639069192
-0.35453626798925386
-0.27348061745104923
-0.21386351386735522
-0.23649263431773337
-0.30365433317258295
-0.4268985699866655
-0.6302024294780358
-0.6677870142591446
-0.2402295643330747
-0.3025616044660265
-0.23602946975682748
-0.4565961405565199
-0.7312274666666666
-0.4131825403784815
-0.3569566232781336
-0.2494550561689921
-0.5975544169652788
-0.5986216747408147
-0.3447754032438803
-0.42347613244116816
-0.348456241595918
-0.5688912909785068
-0.38987017881136904
-0.358252
-0.2606543542562545
-0.2375979290251881
-0.3256153556863221
-0.43431452311878843
-0.5509558012453716
-0.4004781271002544
-0.28845843821911726
-0.2407294136692665
-0.3152353126918647
-0.3697710793244022
-0.27142373006505577
-0.2512098386966884
-0.3317486304598772
-0.44828588541666653
-0.44629494730316205
-0.3930960940430655
-0.22927950464823918
-0.40423745059270194
-0.39677488
-0.3510449869807811
-0.34481333333333325
-0.19334979104109654
-0.30995272531555074
-0.2846291500079871
-0.4578026826158746
-0.6678757883860299
-0.38353106013639127
-0.2924654589233036
-0.35075767235303434
-0.3043719167937579
-0.5991933454846056
-0.5361835306881587
-0.5022477809335638
-0.38066355264818513
-0.4684001191477796
-0.6834120717090313
-0.5523162940306517
-0.44656427283933314
-0.4384333470071959
-0.6572110614987084
-0.50621
-0.3125718362370053
-0.23719176889507496
-0.3320107370153566
-0.2828333963162881
-0.37285590053627476
-0.3569869184027774
-0.3357753246913698
-0.31193310910089794
-0.22797944774702691
-0.2484179189628747
-0.39768482211885314