<?xml version="1.0" encoding="UTF-8"?>
<VTKFile type="UnstructuredGrid" version="0.1" byte_order="LittleEndian">
<UnstructuredGrid>
<Piece NumberOfPoints="1536" NumberOfCells="6750">
<PointData>
<DataArray type="Float64" Name="f" Format="ascii">
-0.6580513179159692
-0.65427
-0.5994110810954842
-0.5868771006675342
-0.6096660071920145
-0.6575166237356261
-0.46344150281761526
-0.45488255208333334
-0.557391696668107
-0.39068844019161725
-0.33658814631122136
-0.4366038477767678
-0.3931600610990556
-0.3327904
-0.46309081770723554
-0.41877041795630177
-0.4259060136391817
-0.5908616398407548
-0.590938762609844
-0.6474178848935732
-0.6188559250169295
-0.6133931830600416
-0.4474242023145285
-0.5258603703995206
-0.5009872642205854
-0.45823021673138525
-0.5626221502917222
-0.44146118869149104
-0.41713600677825996
-0.5466448888278076
-0.5150418238793223
-0.36063576605635156
-0.4832195232256718
-0.6259763702768079
-0.5331571296135563
-0.6507993834034972
-0.61763626196627
-0.5980950960942343
-0.588046733075667
-0.39659007862023277
-0.6282746976213008
-0.5384122624565704
-0.49328784578331214
-0.35788434903905764
-0.5310938234794663
-0.4685418337667564
-0.4910343008045312
-0.38136098388096723
-0.46178174433829594
-0.4846145517867662
-0.5381767498345464
-0.28710367942926523
-0.44737690439720695
-0.5502029834135733
-0.5849557835480683
-0.5414488011622259
-0.5436849218445221
-0.6571876094287185
-0.5696920249225047
-0.6468122683797063
-0.597448824587004
-0.4737303616449673
-0.44831554441868077
-0.43905785594937813
-0.6014800213302852
-0.4580755975725656
-0.28194544688636164
-0.5035424966253713
-0.5324854587819511
-0.443641930000319
-0.40745798245076315
-0.489295778053318
-0.45988023779679393
-0.5052276048568026
-0.36621544021492053
-0.5214854354549486
-0.29357445098315815
-0.4696428821154475
-0.4763744622774146
-0.5594718686363312
-0.5177162205988328
-0.5695477080196417
-0.5068139390196333
-0.6120173546693105
-0.655037061231383
-0.541493110762728
-0.6091967027799166
-0.5805010373069307
-0.6050367989253979
-0.6569184828886295
-0.4990732896336875
-0.36257000000000034
-0.3558904662409325
-0.4641231751891723
-0.45280264322916614
-0.48564928783262545
-0.28762334630143277
-0.5076588808388768
-0.4399160511418963
-0.5123387910725351
-0.45782472498768184
-0.3664719040596179
-0.4513025009453409
-0.4674110634771315
-0.43681026666666606
-0.5189967631737081
-0.7148499999999992
-0.4033570861824653
-0.45710731799206533
-0.5026241029367463
-0.3290457904525726
-0.5042575972724459
-0.5480682470993776
-0.4629441506216327
-0.5805129977925673
-0.6912903009072676
-0.6245073115074247
-0.5381573272006596
-0.5871241949210938
-0.6640478732638887
-0.5710600511001144
-0.542008528586644
-0.6057062533581322
-0.5124648702975092
-0.5576454666666673
-0.5837578776606746
-0.3776056652957753
-0.31141399999999997
-0.3787862246884494
-0.34011763782858195
-0.5466151796875
-0.4390384329608474
-0.4206105943208811
-0.6377397042777434
-0.4053575128046234
-0.36267396958761516
-0.3704968811572699
-0.37449366675557005
-0.3668494377534462
-0.5397345486096489
-0.5597443999999999
-0.6550445244246031
-0.3979191306294682
-0.3391554863872772
-0.40272938924923635
-0.5691507606147651
-0.4190353589584626
-0.6221314644394127
-0.8279899999999999
-0.43026891888010205
-0.363122168885863
-0.5202015807841688
-0.5047599955507006
-0.6331349862642995
-0.4693521537485073
-0.45823432337215314
-0.5975394692951732
-0.80519602988406
-0.5680712268093765
-0.45395610002085357
-0.527260333419152
-0.7275997395833332
-0.428208266884399
-0.4302394219521777
-0.555615432114073
-0.39116985801164444
-0.40331751999999993
-0.39246198760074386
-0.33132966052865426
-0.28388639388303366
-0.3973734778031676
-0.3436611464521305
-0.5525935166596164
-0.29897048288213934
-0.5118957675734291
-0.6240270189644682
-0.2553877537592542
-0.3503244406369916
-0.6909996233429818
-0.5983127921058068
-0.3348293911121267
-0.32505623926777205
-0.34278417526818616
-0.4671076107322456
-0.32549254925653587
-0.2737514776092364
-0.48962537353933167
-0.6997560256449055
-0.553562770005716
-0.6870463468286926
-0.4561350622974409
-0.27121481549319876
-0.2880092590660564
-0.6240549047186049
-0.5563849459869764
-0.6590912058463476
-0.7370630429840866
-0.4308904698361913
-0.2555734067705846
-0.4345848848059149
-0.6669812070394318
-0.6303076013249695
-0.3069179818321039
-0.3714877893450161
-0.5864738175160352
-0.7818799567432855
-0.38853647845304135
-0.3013656853344369
-0.4125089360083632
-0.7414704517494571
-0.28432237704615687
-0.2505756659234913
-0.5449530483105917
-0.2326113737861397
-0.3591300214507132
-0.3634000995803246
-0.3845717593038725
-0.2816101487910726
-0.38942948910072045
-0.2686194874974173
-0.4242092783117725
-0.4900915030451909
-0.5585245131030909
-0.5383006040226864
-0.2629852386176317
-0.19828131225459875
-0.6969060596235956
-0.5917232262450919
-0.4501840785679078
-0.20383293188080112
-0.2899726475085043
-0.7151811413833543
-0.6646704821360641
-0.7082511669999012
-0.2828484814907195
-0.28079741574365974
-0.3520464548460423
-0.47577536123166014
-0.34455937055088365
-0.21019459538867982
-0.43107386165592065
-0.8155970431659428
-0.6227651930391528
-0.6378403642593333
-0.4997436622161627
-0.26531839475377966
-0.17659097406319624
-0.6159457369704472
-0.6989877118566888
-0.6349436716314077
-0.524630241785494
-0.45619687734558007
-0.17757219673486258
-0.27886312480406805
-0.7469136679466927
-0.4795081570459691
-0.16230384467865291
-0.3130340911023107
-0.5644309042562496
-0.6100998505874538
-0.2530712842217483
-0.18014866407108923
-0.3762874208496119
-0.6540538958379082
-0.19069373423120942
-0.2360569992565582
-0.5675960508135681
-0.2836379697667741
-0.48039112291795755
-0.5699345722493669
-0.41510434022600357
-0.276426
-0.35311108909417804
-0.4988290775636952
-0.46501333333333333
-0.4206372859038953
-0.1729342802231866
-0.44200724636824335
-0.5919461423038919
-0.5641110316181027
-0.654049058646951
-0.67239208
-0.5992092148813852
-0.22627910580930402
-0.1731030695047193
-0.6745424896610266
-0.7540541884686918
-0.809689396313298
-0.4382159372231158
-0.24275223352151767
-0.29067827719225686
-0.6633191841169149
-0.858278654971405
-0.7326874723851352
-0.3031704288174703
-0.2901703320301172
-0.39224344389336635
-0.4903035796499316
-0.44720701075269714
-0.19645982496814077
-0.39080274557682165
-0.8880652769745816
-0.6764119109209358
-0.5057879625324889
-0.5094085869046024
-0.38405329292112284
-0.11104695302004192
-0.5281982556175495
-0.7818536797932486
-0.4859521640869671
-0.40903
-0.45455426918674807
-0.23668915386281417
-0.1566639699056288
-0.6649226611082248
-0.3518729299189225
-0.14604598427774332
-0.3037088241924221
-0.4671561614127681
-0.5260664839729677
-0.232379051577984
-0.1934836355070556
-0.4173176066864072
-0.6221177135416668
-0.2557678914385388
-0.4300804070149187
-0.6229503211407315
-0.571895234485119
-0.60285368
-0.715191532548047
-0.34400471105875585
-0.3538133333333339
-0.37285403951474594
-0.5185276625576672
-0.4803828133175146
-0.4952309939236113
-0.637807200675727
-0.644344417234966
-0.6149422131990558
-0.36294726735059996
-0.17495909568092619
-0.4275072547150303
-0.7355188698258756
-0.7198231779717861
-0.7282786666666666
-0.744695942425858
-0.7432797499483361
-0.8213244022617477
-0.6275204562361512
-0.2971183956773605
-0.24980222222222168
-0.7448102106749089
-0.783816852231928
-0.894780714318787
-0.4793117746429835
-0.3047894709322747
-0.3596756623269269
-0.6103201406137577
-0.9551415617514077
-0.706938196297211
-0.30644847656249924
-0.39601211283950793
-0.4553586242869756
-0.4346691555808339
-0.5294560023282012
-0.30955213576324314
-0.32321824137218313
-0.8177879240834875
-0.6863325429133375
-0.4014091333622665
-0.40689668618406283
-0.48671042265693015
-0.18777632027926663
-0.40527559999999885
-0.7115034284276066
-0.42780433118846867
-0.48635000000000067
-0.3700286944549552
-0.3359936663192997
-0.17583696081008526
-0.5431888282703035
-0.34595315410732796
-0.22131913057756772
-0.33073033479261765
-0.4904209917998373
-0.6097692644718629
-0.2957316146913923
-0.36585129339668826
-0.5653456914730449
-0.6414092404513889
-0.5111025985646943
-0.6574769433277529
-0.5898736381483773
-0.7795178771460946
-0.5332221333333323
-0.5783308059516417
-0.3473719844173024
-0.4682101632568707
-0.44408693153327145
-0.44118881825431683
-0.43169728146311215
-0.42883649960080444
-0.4470632252275519
-0.3820794213680513
-0.41993647787481575
-0.44729923678470934
-0.49820778294573576
-0.5254844234787895
-0.5473203206283274
-0.6296
-0.6071862502325005
-0.5945545311757288
-0.4285754732382721
-0.4487041653282547
-0.5372864569637105
-0.5200210161797604
-0.6287896337088911
-0.6153616295199634
-0.6735906096249643
-0.7292820489611954
-0.6859053095267623
-0.8133277049797756
-0.63533917073657
-0.3151354106088768
-0.28898066666666594
-0.4092858077551534
-0.7804940329839449
-0.8546334914203242
-0.7578509077865262
-0.6449934820629099
-0.7583644589090467
-0.7638268651291589
-0.8920913213516394
-0.5704020697144686
-0.3826822642031947
-0.3401426666666664
-0.6049060753320796
-0.8277889254193211
-0.7975358440551336
-0.4761032239583331
-0.37631684014301325
-0.4330022376450619
-0.5312552635774291
-0.8549929253078864
-0.6055092911758634
-0.3415154253472216
-0.5154936827429514
-0.43809052657602093
-0.3857879196114897
-0.49669117058009965
-0.4816553811630014
-0.3224245201487897
-0.6763579733333338
-0.5967639582204328
-0.46563948608786127
-0.41191217049462575
-0.4760090553223109
-0.36630568985657236
-0.37818685333333213
-0.6161260413308537
-0.5763140023360017
-0.6014270138458353
-0.44553331736686913
-0.3869200626098845
-0.2952883291344391
-0.5116871808224833
-0.3913108932723484
-0.3455515166045353
-0.5030018434839273
-0.6247031494447516
-0.6877385717243224
-0.46243675375549026
-0.6040450384624928
-0.6425878951908165
-0.5908067699157673
-0.7263746600363065
-0.6569603839819232
-0.41770136603147184
-0.6692131080648059
-0.3061200244678667
-0.3098244336577678
-0.3336635176000549
-0.48205051396687476
-0.5137130073886972
-0.33734976805759675
-0.4850605528263083
-0.4454958801870755
-0.36573128110720127
-0.5195970641234168
-0.43735555593104
-0.4285949901525345
-0.6484799557124211
-0.45727154947916665
-0.6864209171201284
-0.5232811273805159
-0.4975332403389137
-0.48444190514569124
-0.5396742133557767
-0.5559947798118752
-0.5989480004614167
-0.4652674471659681
-0.7008305544877111
-0.741030005168598
-0.6308247026364086
-0.5667102345939243
-0.6513912241717533
-0.5331905357527899
-0.7781217616038881
-0.8642920595648639
-0.5395699502712167
-0.34048996314665564
-0.40191920000000003
-0.4050767892288079
-0.6000899899873425
-0.8563886109958264
-0.7007379413790727
-0.6781841608437994
-0.6184575942784837
-0.7004908182269065
-0.6808213970840741
-0.49447163640087544
-0.45292271195982375
-0.37779604945925455
-0.4366799158491781
-0.6674713779946818
-0.6553834840448937
-0.49106380677083356
-0.45044002248346965
-0.4245963482153871
-0.4230203249912777
-0.7242436558242056
-0.5744067998760073
-0.4647000044057545
-0.5408463618157456
-0.44161950464972105
-0.45309553316801016
-0.5470298546953488
-0.5598179421346264
-0.4514760377644336
-0.6355687200000001
-0.5529248989364965
-0.5285914702606557
-0.6028691092961487
-0.5569525172419083
-0.4703748737211642
-0.4474205255769092
-0.6120215950402975
-0.6567683895990073
-0.6987373961562308
-0.6518379963541316
-0.5049182690154274
-0.3800958688715339
-0.5033250335239848
-0.44633491193967517
-0.5003118969373835
-0.652673845501102
-0.6126507593781697
-0.7192273903872978
-0.6110286937787329
-0.6702763012054832
-0.4954213188988115
-0.5474738463485158
-0.6871078288167692
-0.43218246914861713
-0.32543787735479196
-0.42146949842488896
-0.2154028548047117
-0.22492147854786487
-0.3590180078528617
-0.49215189927959163
-0.4944815716230839
-0.42757404171642355
-0.27660404133687544
-0.48353183513162185
-0.48417716858010157
-0.31319526365207784
-0.2711721913715245
-0.5160815745791042
-0.5686214087647213
-0.3171992870427775
-0.32358118951855486
-0.6105698675297098
-0.5908480695973459
-0.6093713562080614
-0.39437960179068293
-0.39376017668939867
-0.5364512746435217
-0.6164939700280319
-0.6125869597579586
-0.4958330486498143
-0.4027117121306046
-0.42781735999173337
-0.6528143743392204
-0.8114734531120836
-0.6259185804274092
-0.49749551430074074
-0.4653596188823831
-0.5680554542857493
-0.6039092508141709
-0.7710680972679866
-0.6646549454701806
-0.4512925627823859
-0.3952816085968172
-0.42234748563752805
-0.4450781086242552
-0.4527259301661955
-0.588518381666088
-0.6134938833643312
-0.6414217916659287
-0.45622342204861427
-0.4905336384046281
-0.523827938960313
-0.5304500101596937
-0.4892486422689964
-0.32451956671488685
-0.3099672930181992
-0.5795130947165396
-0.6719253107075095
-0.5512213860694574
-0.4450554240202879
-0.4250474255011359
-0.44614732163855536
-0.7265567430708821
-0.6216447105863362
-0.5271016658674962
-0.5764704226529355
-0.5151086908452162
-0.44069075699435495
-0.690492251480242
-0.597179654142557
-0.5213224755344877
-0.633185979863608
-0.5894763623662718
-0.5617763892415439
-0.6354382940078532
-0.6964112319809854
-0.49783198335004625
-0.4504343087139215
-0.5785223788136709
-0.6440539401443953
-0.8299403285802855
-0.6504439392817022
-0.6047464510124331
-0.40767316531514736
-0.4471155789353751
-0.46907200525309184
-0.560562197396156
-0.5628392003741124
-0.5454380145227963
-0.7381413030197316
-0.5999769030231604
-0.5270299871813635
-0.38202405157036706
-0.5181220415652227
-0.5356086964847929
-0.3353006204293684
-0.31888577640571986
-0.372619742957876
-0.25067550411242007
-0.2731207324087319
-0.5213824881173804
-0.5172643310222919
-0.5266357180512043
-0.3769562423281811
-0.3003771320723517
-0.4621378910844482
-0.4756826523880922
-0.5085061292300636
-0.37927867749926847
-0.30668399999999996
-0.40541776445116245
-0.4528677496741231
-0.5817259651740563
-0.430567689665638
-0.3834707971307223
-0.4810770074606463
-0.5913012054832266
-0.5066831912144172
-0.4005036448925698
-0.46419072948956486
-0.5941579999999999
-0.6729439749563751
-0.7094156500164011
-0.5137373459872395
-0.3510824130343391
-0.4465822507373072
-0.3897049353172139
-0.6131009065244796
-0.7235698447177943
-0.7035998246371808
-0.5450165987852104
-0.49219106571662324
-0.6762837611602012
-0.6262522639973284
-0.6085793170943389
-0.5272850937500001
-0.4353541619197234
-0.4100838818381299
-0.30620132527381777
-0.4727360713205842
-0.5114803476750857
-0.4535577286629467
-0.478965072122339
-0.6049137750036032
-0.3732765799282471
-0.4515039999999993
-0.6347797051502266
-0.5760367270578506
-0.4057512883964154
-0.28690400000000066
-0.3921520855548657
-0.688151447985121
-0.6956170255618962
-0.5196611549387685
-0.4273851724636788
-0.5086202149204382
-0.5585526601044649
-0.6962369318625433
-0.5917299161568542
-0.496159815972223
-0.6474713168319807
-0.46896472524142935
-0.38195657978635605
-0.6302142718980052
-0.6161966834627068
-0.45948596569539163
-0.5568781330026872
-0.549324384701972
-0.6932222589435754
-0.5261030204081022
-0.6239201665536475
-0.4774649963362522
-0.3753058933333333
-0.486640512063011
-0.6929489819974516
-0.82917220878553
-0.5290722676297577
-0.514786989817919
-0.3914865558999787
-0.3843844095887579
-0.43128769876572365
-0.47837009076240083
-0.44969461387465864
-0.5560760691635805
-0.6546215280694753
-0.5258731927014191
-0.462026889483719
-0.40701817008914243
-0.4172103251924532
-0.5247984173980511
-0.3870588698827502
-0.26881266685153443
-0.416243577015219
-0.24361922447545228
-0.29072746445274256
-0.7394777777777773
-0.6336787465874619
-0.6247447070261866
-0.4482737581994786
-0.3332794295303405
-0.43049930564166144
-0.7566032072742291
-0.592376219238309
-0.5263157117449052
-0.4752602968800896
-0.4208832799057604
-0.6672256385616852
-0.514525860478883
-0.5144032031901967
-0.5014480526941475
-0.6088287438864767
-0.47109716812303165
-0.5600788438097359
-0.5323920479526311
-0.6198398422049943
-0.6852466666666654
-0.5846748
-0.7439837981964851
-0.7682776702029807
-0.6581003997825904
-0.4927544351127329
-0.4998942110769911
-0.3609073465782103
-0.6255585692851381
-0.6446072960069444
-0.7369573557768733
-0.6802601931578476
-0.6760105345007386
-0.7598564098890374
-0.6548314048088208
-0.5182049197492594
-0.6283482119791661
-0.4429260243886
-0.3212625436997552
-0.2189052
-0.3869591910082811
-0.5728991485625818
-0.6580706881587107
-0.48516448888888836
-0.6172653717226463
-0.48105631879864946
-0.6940229440000002
-0.707512360223321
-0.492944751045899
-0.3356710273420545
-0.4143155555555567
-0.6217584577805333
-0.7218728771419358
-0.5980448234299546
-0.4371552890625001
-0.49529256887180556
-0.5118877861417455
-0.5716078769805889
-0.5876848532008551
-0.4842904494730315
-0.4592510026041671
-0.5724098026935605
-0.34654211448153166
-0.490947004448599
-0.4470044986176695
-0.5141994447392227
-0.36327293552386836
-0.460027872
-0.47295218500358865
-0.7595955070107289
-0.5655439610491352
-0.4689520223906906
-0.3886585097589144
-0.3211635555555554
-0.44580802727836316
-0.6826151581118594
-0.7004200000000002
-0.5465383798495345
-0.4204087282854474
-0.35417971259660425
-0.37963490666115557
-0.4265363932851433
-0.4458404885941832
-0.4827375346965202
-0.5176766994765618
-0.5879826765453532
-0.5337293324570318
-0.49873223385902693
-0.39456372193338646
-0.40123898437499994
-0.5149386676813786
-0.3617834544896432
-0.2848928704277744
-0.34288152995835647
-0.275948
-0.3525948977061376
-0.8363006666666676
-0.752268047070022
-0.748007302025188
-0.5524572416541921
-0.49687135481573047
-0.5579972814456234
-0.9059547613143213
-0.6968970534829283
-0.5951800420079292
-0.5088420379521028
-0.5292284707584206
-0.8213725926844387
-0.6415123773732501
-0.5000228670546233
-0.5449579013230997
-0.779090993800372
-0.6299460472854698
-0.5752480798777944
-0.6750281852563695
-0.8143964678036175
-0.840676
-0.5299993746641867
-0.8189297852315711
-0.7105087116281417
-0.7795525411137768
-0.6405677128800051
-0.6617383754461146
-0.3405685274721842
-0.6350669382986268
-0.7298717690972224
-0.6516110624258592
-0.7743171182317359
-0.7890330643958042
-0.8066480372252142
-0.651928969924914
-0.6838179270510435
-0.7368228453878967
-0.4088056983655217
-0.2503799028724946
-0.35483066666666746
-0.32938495017076064
-0.49577050975837816
-0.8387334886146696
-0.7193401066666669
-0.6924074238929129
-0.713106154164084
-0.8801734193263077
-0.5874589845953158
-0.40894665608908926
-0.4239799091491521
-0.5004482289729283
-0.7600972709281008
-0.6052020992361823
-0.48414095040758776
-0.40130315364583313
-0.49014960775079425
-0.4026394180318596
-0.4994788072941387
-0.50683039322174
-0.3707318997726799
-0.4037930076393917
-0.4255943126645883
-0.3709517042138771
-0.6393853440712388
-0.4511292774354175
-0.4179378293429205
-0.31696520642450926
-0.4078494666666667
-0.47669371528743193
-0.6891852691838717
-0.6518432135977901
-0.49758018366289214
-0.369473071560612
-0.3560897340497337
-0.5059246522008685
-0.6053907468298121
-0.5879299455968906
-0.4658730272785127
-0.4002998141475283
-0.4826009779064406
-0.5172007559421009
-0.4510891518913736
-0.4979767703575833
-0.45718738625022426
-0.4568982162645226
-0.4381679046187632
-0.3710186089732775
-0.34896783767177947
-0.3457020547833098
-0.33504917956398
-0.7968145601708351
-0.8080135951594348
-0.6856150811440908
-0.6157126347853782
-0.5944335608243102
-0.6525809510349814
-0.8854093167633676
-0.7131488290890284
-0.5982565551110336
-0.5073251496911565
-0.5851112862988221
-0.8109009437671696
-0.7227069267017598
-0.5810589112335801
-0.5771372664592181
-0.7435681548737706
-0.8100887660234579
-0.6467713845486106
-0.8335502480004956
-0.7326145819189787
-0.7435760405042353
-0.5161221091134532
-0.8551161391543052
-0.6648999494046861
-0.6617728681978824
-0.6901316119740918
-0.7493515420947762
-0.3350511709030784
-0.6226950679210783
-0.8605108298240683
-0.6231134946957247
-0.7089946120272791
-0.8230302170625504
-0.8169831435483575
-0.7097590400495973
-0.8899077137355605
-0.6926114140894089
-0.39555956229009154
-0.345313603017153
-0.4640253060549699
-0.4095248991772796
-0.41377568576335055
-0.7608811705200078
-0.9378893236068063
-0.7954459166672105
-0.8615780217316674
-0.81444096384377
-0.44704615382123986
-0.38876213839315166
-0.4635693899376913
-0.4167299214713784
-0.7191330383918279
-0.4947495675139492
-0.38389993483675
-0.3759883856260118
-0.41222007788844023
-0.34694109352478586
-0.46728195797718103
-0.45041859319418603
-0.34283264928285306
-0.40109082800821855
-0.41333833609460774
-0.5128635077777289
-0.6546085678859271
-0.5652634927011809
-0.4711954345670251
-0.3914020178027588
-0.4707538696424874
-0.5463413542719504
-0.6268863117653494
-0.5786952408213715
-0.4426113174768058
-0.4891652691465169
-0.6618779696693533
-0.5394114503133717
-0.48896973047974496
-0.4218087272537177
-0.6562599829852934
-0.4757994185201217
-0.3582105373260482
-0.4558125378979326
-0.23913905370362395
-0.38185683170076484
-0.2844572914838589
-0.7601862988220719
-0.8450017079032649
-0.5460187343863013
-0.5446475253718398
-0.6086498918992403
-0.6884357851619417
-0.8420712280595328
-0.7291945498621932
-0.5629898228383645
-0.5256104090729233
-0.6147104712543915
-0.732434239617353
-0.7322848681276498
-0.7029804554360463
-0.598057811531308
-0.5882072960840405
-0.8119341752088275
-0.7584935989583333
-0.8173141331585717
-0.5007411951969718
-0.5057558627815676
-0.5165936000000001
-0.8599289021542981
-0.7450314790912508
-0.4996389018200696
-0.6268075306330512
-0.7852056496742311
-0.3787418767651718
-0.5951726257300511
-0.8864360584021648
-0.7191513443404709
-0.6304355215623062
-0.8154906287271383
-0.8119479070924437
-0.7873146971608693
-0.9059946314229966
-0.5739050390625002
-0.43427937259831445
-0.4146001649490958
-0.3850567526348418
-0.4392875005451111
-0.3922405161006453
-0.5775195475511467
-0.9479146980781153
-0.8144227498089157
-0.8545359487139118
-0.656912944
-0.3763617015219045
-0.37254343886623714
-0.4202182899783467
-0.34008467796376646
-0.629247167265964
-0.4448535270785972
-0.36856695332872497
-0.43393159056300395
-0.4208611337760064
-0.38754816501412587
-0.5079585245141545
-0.49779181378028997
-0.4790959741141509
-0.4984518956093685
-0.4557560801902181
-0.5849616336019839
-0.586253928055525
-0.5224064197461277
-0.5007160516802861
-0.6411475916181026
-0.6751176351144909
-0.5525889441904318
-0.4559938904837951
-0.5346032854170963
-0.8337108163595613
-0.4593512111567169
-0.3192704486416265
-0.649888865426859
-0.2580062764804959
-0.326854768133912
-0.19851093389728297
-0.735999333333334
-0.8810677364045794
-0.5838156847281052
-0.4695143909691188
-0.5942242782980194
-0.7190764191056163
-0.8127700376110768
-0.7423226002985169
-0.6267553191239501
-0.5737751685073627
-0.5920918666666671
-0.6688596949783011
-0.6720363966421433
-0.779462701792783
-0.6016932783632981
-0.49278628063649427
-0.6712730327509733
-0.7955954407965119
-0.6431391281977303
-0.4030321157622741
-0.39602
-0.4846153333333331
-0.8075682900365811
-0.8461339548354644
-0.5329636785375432
-0.563833976821657
-0.7744973245776007
-0.4029975184059597
-0.5388934790336245
-0.7778192170138891
-0.7948694596478174
-0.6195221673674074
-0.7599499426273685
-0.7403176993997257
-0.7969628741317085
-0.7659531002273208
-0.47883088541666635
-0.4293755827046278
-0.3491475194870617
-0.3251821779293241
-0.4227695536754965
-0.3903324615959305
-0.47365185038231017
-0.8320734666666673
-0.7680513797170124
-0.7872864765447413
-0.5737288799999996
-0.4066083902240851
-0.46120587260399687
-0.46347161872788684
-0.3191545657192077
-0.606357728042984
-0.4943717719054816
-0.533992110049565
-0.5916700506230314
-0.42033556225509355
-0.445889336639801
-0.5925533099135939
-0.6776608261064934
-0.639666849655626
-0.532403893480835
-0.4457228703779326
-0.4770666410151672
-0.509135853727866
-0.7056888331886754
-0.8226959735957581
-0.43304700800814105
-0.4188392155176572
-0.807192522786483
-0.3044497127505686
-0.4087919249299275
-0.2126628367455633
-0.642888888888889
-0.8438850953478757
-0.7056726396435097
-0.5495970036856886
-0.5520389909333333
-0.6704874064889448
-0.7172666914651781
-0.6890638324485662
-0.7083024229877517
-0.6575147801955112
-0.4764006399999999
-0.603167828063649
-0.5826592315083476
-0.7694686451002098
-0.6176862419139953
-0.48577458841358373
-0.5778872170544367
-0.7195591779088746
-0.5564275266910536
-0.47126193522825205
-0.4817133333333339
-0.46080096507542895
-0.6553817383456981
-0.817217337775324
-0.6329737277676242
-0.5707423934702459
-0.6532412015129019
-0.38618011057508644
-0.4688909624594313
-0.5958417954282406
-0.7627214530640506
-0.6046652508011406
-0.6639008932795446
-0.6397321778877937
-0.7619687736309165
-0.6143849176827167
-0.4344329246400774
-0.43750352213255544
-0.2979698795503279
-0.3041296824806202
-0.47015885117395345
-0.47017579820508376
-0.479327651038838
-0.7263711999999996
-0.7377659661804471
-0.7280308080181858
-0.5691476290473237
-0.5383735110171419
-0.6206274692845694
-0.4752329686049895
-0.3384500000000003
-0.5953405763306939
-0.614172481062321
-0.7012086484171207
-0.6397042679909558
-0.3656531384462767
-0.6669083865176116
-0.7728392201316443
-0.6458153933764911
-0.4728345225694441
-0.49505386030171467
-0.578212778087856
-0.8332038749450704
-0.3839311999999993
-0.5507287816921632
-0.2852840462905554
-0.5695320334779922
-0.6807201810662851
-0.7124444908127644
-0.6480659497544807
-0.5458802600422049
-0.48639848605083685
-0.6421134302767763
-0.5829721163723746
-0.6794563476602863
-0.7026757095725921
-0.43044308886133525
-0.587834527925679
-0.5420684589353045
-0.7089833285136734
-0.631404431991272
-0.5358378579008268
-0.6013506130570981
-0.6700955026041665
-0.6212088319176641
-0.5698535155227251
-0.6036830233519316
-0.4842842820830749
-0.49379519181051973
-0.6499205126685155
-0.6491936419858946
-0.5630724025677699
-0.545615864530474
-0.3539429427709669
-0.4685173434474769
-0.43055071322809835
-0.6575224317599969
-0.5913340006199627
-0.5771316863771238
-0.6080454430420225
-0.7134354524764072
-0.5017430149288179
-0.45713900977248656
-0.45976608943830094
-0.2583013949437522
-0.29690599999999995
-0.46641030422525204
-0.5400789749132021
-0.5110837774600667
-0.6267338644899089
-0.6998957684816246
-0.6190686610832018
-0.5485194835213888
-0.6068105299789456
-0.6430944482973069
-0.40251101891003765
-0.5176963034358547
-0.6720323765281893
-0.6759188580158534
-0.5707763750000001
-0.7040062838499416
-0.658306131584208
-0.6175985102293862
-0.5154750400000001
-0.6545180378574803
-0.3954048208307502
-0.5931493759041128
-0.505248781442244
-0.6187869671387424
-0.6240901216947651
-0.5618652309529265
-0.4146164185310074
-0.6628890269216826
-0.5239458963181396
-0.6118755446550813
-0.6526755963426359
-0.5055897151064264
-0.6360203650573898
-0.5931520520708203
-0.6513836973985243
-0.6391566224426536
-0.6256937110103422
-0.6801867835365359
-0.6531626171874997
-0.6983404954100748
-0.6832470339069988
-0.7162858586484812
-0.4814186534407934
-0.45941581312656515
-0.44590053192892815
-0.6067420145162128
-0.5133164101177924
-0.5532704131236439
-0.27072007884004495
-0.4666976369133848
-0.37185650591359454
-0.5158169313861358
-0.5907379885926841
-0.5429766692654112
-0.5985193755107902
-0.626995688763163
-0.4202873839706107
-0.4454579062322405
-0.4022674052083641
-0.25068094544327324
-0.4062802558202118
-0.4911621833664914
-0.47902878926145975
-0.48524744550526927
-0.6054469959361696
-0.43119684055092217
-0.5213522135317211
-0.5348145436345534
-0.5717366907696038
-0.4986305540217702
-0.6042908758585722
-0.6133757509185732
-0.6645711324581248
-0.5718287123785907
-0.5384047587897575
-0.6028126193428399
-0.47278058645593996
-0.5281841942726219
-0.5512876506598859
-0.5224902483762274
-0.5558290314781971
-0.6576408987750256
-0.545957905114662
-0.6132724246170066
-0.5397322251260609
-0.56598448
-0.6217831885968735
-0.6503107861930193
-0.6380944393191222
-0.564900437073775
-0.6589000110782536
-0.7262292078128953
-0.6035971439922809
-0.7353685687515455
-0.7877996387486893
-0.8484199173382936
-0.3722816243927655
-0.48218087117037517
-0.35670623335514784
-0.5548276739133441
-0.4642135570159116
-0.5714590571673624
-0.24281687332093396
-0.37311272799562617
-0.394132753686052
-0.3996663655472085
-0.5910910136408725
-0.5092906851379019
-0.5828731386298917
-0.4902752217235524
-0.40651131554477377
-0.3668965510551254
-0.3651106950266434
-0.4642627780562772
-0.4219099565738968
-0.42639420376110754
-0.45851033854528994
-0.3595961542665775
-0.5345574197912145
-0.5046885447827362
-0.5796929062630979
-0.5651233087414755
-0.6463244137014722
-0.5054927972437565
-0.5185518650665285
-0.4841239856706719
-0.5403388157869765
-0.4085541066253225
-0.661441413515189
-0.5721191443396226
-0.548311527190806
-0.6057814269464802
-0.4644115463286986
-0.46898666666666594
-0.5170041582625667
-0.6007036760669693
-0.6157730439537853
-0.41101149289323374
-0.5347022967305383
-0.6811217702459728
-0.5644720850971597
-0.732710010490436
-0.7003396008463164
-0.8225287080103364
-0.276708
-0.4293559403162781
-0.42996703139934245
-0.49521610245632236
-0.47514406794512043
-0.47216971778566946
-0.3243856136152273
-0.4047429867835744
-0.43217671789038853
-0.559051605169944
-0.492889330108051
-0.5712636524467813
-0.4412254824434961
-0.4656449478106665
-0.3957721744791667
-0.48649806447613125
-0.5209133509457361
-0.39290372574269367
-0.4850276109925107
-0.6153215200000001
-0.7021817693738376
-0.3821000000000007
-0.4971591075076998
-0.5069368235773571
-0.535747928881989
-0.3197769492444611
-0.5275834531928073
-0.4859186856788589
-0.47513685020982394
-0.5325667374993758
-0.44560472854050254
-0.273250253606118
-0.43545105393676387
-0.45982061818273395
-0.5118429690770855
-0.3404246925111338
-0.3922117172969623
-0.5350497609410604
-0.5058405194085485
-0.625409635305659
-0.5253400289405676
-0.67353
-0.36652395209457117
-0.5189931382696772
-0.5104224054954666
-0.5229744731965441
-0.33891932794485635
-0.4468686588541671
-0.5788964909085214
-0.5383359649832863
-0.5522866415817606
-0.5639455499542312
-0.5499003569506193
-0.5818458700144663
-0.6700138666666665
-0.4758440156713268
-0.6732210291382514
-0.44453540143888676
-0.5508881601284922
-0.5041348149745825
-0.3432870840827587
-0.2839240025972085
-0.4202997160150241