<?xml version="1.0" encoding="UTF-8"?>
<VTKFile type="UnstructuredGrid" version="0.1" byte_order="LittleEndian">
<UnstructuredGrid>
<Piece NumberOfPoints="1536" NumberOfCells="6750">
<PointData>
<DataArray type="Float64" Name="f" Format="ascii">
-0.30551529832392993
-0.31305
-0.21037147329696518
-0.4274876394486129
-0.15366034596069195
-0.30300691909400845
-0.25237994276398334
-0.14331993489583333
-0.3141490922533327
-0.37619444472630054
-0.28838275573465594
-0.43289355705954485
-0.5096056186413706
-0.5107387999999999
-0.5942871443238884
-0.6425977021258812
-0.7177862430254184
-0.7595492303515496
-0.42961096803682935
-0.2938311644967968
-0.31074853637797323
-0.38101560608888013
-0.5767703244471992
-0.3911337660062873
-0.47310152975623093
-0.45798459244268036
-0.48396450213874714
-0.5930519101496595
-0.49155825091961164
-0.44528959383018574
-0.6461468519613051
-0.560927183693095
-0.48692334870941006
-0.681803389139967
-0.5421489959909075
-0.6039703227470754
-0.40808112080125225
-0.3366794668319901
-0.4186396870961752
-0.5231406240243928
-0.4335539436603502
-0.45805955048257013
-0.47883070731210314
-0.6597542374457532
-0.5478924007823468
-0.4493075006534016
-0.627788119501398
-0.44343249869807805
-0.5349399874429411
-0.616759729514177
-0.6081836585011242
-0.5064579097990637
-0.6176408865490118
-0.5194686007730162
-0.5855464652503756
-0.6099264019841507
-0.5019865874824013
-0.5694327647064912
-0.4984558681959082
-0.458421786970711
-0.43508114483261046
-0.40445811324653863
-0.45769304465145394
-0.5115704095611907
-0.5032689051235165
-0.41536224414694795
-0.6089653488676124
-0.4997761938087812
-0.5557026071305214
-0.35444497993160246
-0.5493984998429523
-0.604782147137838
-0.5674713383204465
-0.5488852292601684
-0.3535588598470754
-0.5015386163363401
-0.4282798593341682
-0.6410406547815097
-0.5087947125489568
-0.6270185822128368
-0.49488853034819963
-0.6237857479614455
-0.5375678529294201
-0.5584729522284217
-0.5646430262724128
-0.5134131918237586
-0.5399591404463655
-0.43148498064183277
-0.5073464927464351
-0.4080028834932437
-0.5006939587980331
-0.37883666666666693
-0.36734580362494107
-0.5777647769986024
-0.2875492447916672
-0.567396149964056
-0.5977599763660797
-0.5891651680805904
-0.5832405528669488
-0.2347903843769378
-0.6710599293727321
-0.5357979900703342
-0.5967526917073068
-0.525535429426584
-0.2912181333333334
-0.6345674209880291
-0.5195666666666668
-0.5130795401184707
-0.5842467099817372
-0.4469586801974342
-0.438001518908865
-0.4138833760325911
-0.5448289186115679
-0.5523335461555464
-0.5530668238053812
-0.5504396476326291
-0.5118597083670203
-0.5377162113057952
-0.5409096208411927
-0.5095583463541672
-0.4701164024571367
-0.5034802947796456
-0.48411646414548554
-0.401880810048409
-0.431251200000001
-0.3549766893986366
-0.4500649757855078
-0.36428799999999995
-0.3198794615909231
-0.5065383660990276
-0.252248640625
-0.5899269896319683
-0.5510646531617821
-0.2292079696218227
-0.6711001711005712
-0.6587140224074465
-0.6375174078384533
-0.6296414337272824
-0.6893894633392054
-0.5631893101512037
-0.3471582400000001
-0.6655634985292193
-0.5672004164165139
-0.5784880141181579
-0.63270063249113
-0.5178255025909166
-0.5712564860508369
-0.6626999385165245
-0.5207259999999999
-0.5032515121704696
-0.5476641293060941
-0.5225373829473464
-0.4686683466600281
-0.4371266919408408
-0.4945477553493796
-0.5015664444288572
-0.6022682464086574
-0.44445807130014264
-0.43886914992605414
-0.46492585235330336
-0.5691865480674169
-0.3404015624999999
-0.3905064118342903
-0.5187760393273676
-0.28305545381277125
-0.44794225829765016
-0.25186944
-0.2565394197148171
-0.35809468568003805
-0.41776564372804315
-0.37978853217563663
-0.3642513442977932
-0.3612977645645521
-0.4856049083832756
-0.44340558458076434
-0.38795147062344987
-0.6197739986095905
-0.6404437431410444
-0.5448392062820505
-0.5141484544740658
-0.7482184580986045
-0.6927046622995617
-0.6216654406514691
-0.5754543717710285
-0.5708870695300506
-0.6813633335048999
-0.7763446336724268
-0.6002775976803695
-0.6862782144289779
-0.6310805322917311
-0.5466904696435093
-0.5184800171988898
-0.614190643418775
-0.6468247534063508
-0.6176626269043819
-0.5757377131000311
-0.5589207015912381
-0.5248265752818001
-0.47649531258257954
-0.4962485473441342
-0.47675720583913783
-0.40264894118367867
-0.39144864908985605
-0.5065992503897246
-0.5096260416447081
-0.3886779622458069
-0.31649563078097515
-0.45158658744919816
-0.484000379168594
-0.2443223860670359
-0.4055954016732893
-0.46430704312645993
-0.20129558599168537
-0.46500270059297105
-0.23612854399669425
-0.30206317783784886
-0.408863053712668
-0.412764024591858
-0.42174154371198996
-0.36673661768960525
-0.35087230453972823
-0.45862359479672504
-0.4060371237832283
-0.5271790827093666
-0.4873200744693749
-0.4934154949369712
-0.530807325183154
-0.6157224189295308
-0.6840262441883863
-0.63087321948764
-0.5914381016732155
-0.635993733071762
-0.6567741857764214
-0.814608363876142
-0.731610661195441
-0.614770251952009
-0.4470843614383148
-0.4809234294275689
-0.43158738470946306
-0.6010117988215619
-0.7175409875895972
-0.762536066865055
-0.6788342163068287
-0.6259344935674028
-0.4635421910394621
-0.4635863041243133
-0.5379948253438348
-0.5785134317420954
-0.6098790187558291
-0.49409019522338754
-0.6006998191775158
-0.48099916859517106
-0.44086727391536296
-0.42588557697211243
-0.43319071859185004
-0.3446510503448215
-0.34091001136598464
-0.4885012819787236
-0.40564231049459937
-0.4989689081714734
-0.2841061768294314
-0.4686099997520153
-0.41721950060439267
-0.4366830263737113
-0.48694073983291175
-0.467984939044957
-0.45029830516115327
-0.5286058400701963
-0.5040721209340756
-0.5294345281204174
-0.4947417395087194
-0.433918
-0.46048683489366987
-0.4380473872261603
-0.47053541927083314
-0.43407389992945483
-0.360943836949783
-0.4646706175688275
-0.4733326795811284
-0.5201595877247364
-0.5792674960232791
-0.5763895999999998
-0.6114383330171959
-0.51449746158239
-0.47791846386994613
-0.6420334037254828
-0.5590134259144452
-0.7575650475773519
-0.6982574618892397
-0.5638563760456877
-0.4493418102913835
-0.6099817911366825
-0.7711162097878997
-0.7590350357802708
-0.6062903456992234
-0.48097065568447545
-0.275038360198388
-0.48526148371593164
-0.3113708045654615
-0.5316070596344667
-0.5714164853092901
-0.6637536586980786
-0.6697354700970485
-0.6768807500755525
-0.43641194372181197
-0.42146585634703065
-0.5042497863485704
-0.489306211834401
-0.5275807857957414
-0.5709523992447015
-0.5823740000000001
-0.4221234266830985
-0.4441369856351583
-0.3995888670386449
-0.4309506252647503
-0.3307810417758077
-0.3793292982517051
-0.4562691518021284
-0.5140682712709358
-0.6016258374356749
-0.3703065750971743
-0.5127149902895348
-0.5515422015907739
-0.69197503125
-0.5948633839813521
-0.6159513395618195
-0.791579410415375
-0.643375589507395
-0.8101348
-0.7148748344699318
-0.5307559270051879
-0.47998
-0.42567371174075647
-0.5646721157682625
-0.5217072745955668
-0.359504301215277
-0.5308687773994804
-0.40805633705310945
-0.5343367602867998
-0.4162408192297888
-0.35918747137838397
-0.486299598395549
-0.610379484030282
-0.5811010803539035
-0.4956314666666663
-0.5775385658147855
-0.49757400702624477
-0.7303746106911171
-0.6546949881773684
-0.454059870681963
-0.4466888888888893
-0.4975384766262288
-0.735712375569545
-0.7496166540517814
-0.5493324103061278
-0.496360426974188
-0.32912630998140185
-0.6221893482830252
-0.7052842942929982
-0.5498132017089131
-0.5282588223379635
-0.394789320851001
-0.2734374258293113
-0.6152386654519164
-0.32795346891626126
-0.5080316710069449
-0.5166550385754635
-0.4997816485554865
-0.6017487423998603
-0.6597825456010915
-0.5519505471759155
-0.39772308507466625
-0.5227496137023185
-0.478172488888889
-0.47498283134539115
-0.6259108578302844
-0.4939099999999996
-0.48092958615048437
-0.42567811706305797
-0.43623131675139554
-0.4483184301164149
-0.38109933171110416
-0.43672878827086525
-0.48002714065934154
-0.6596549824897547
-0.5427010637154603
-0.49469750574499033
-0.5421305508936557
-0.7346609088720268
-0.7453225911458333
-0.615290206407349
-0.7640681734531998
-0.9453069838809677
-0.6881192580973677
-0.9640117333333335
-0.7946100123992563
-0.5351892427029299
-0.44180664806778297
-0.2789991138129713
-0.505256421762291
-0.35428700867947915
-0.16512952799167224
-0.43853972802080593
-0.2567832382723698
-0.11846591922346056
-0.3550999162658583
-0.24725863979328153
-0.12332856645530545
-0.35866335565585655
-0.30123
-0.14276173290346583
-0.41177302519271786
-0.5818705922711306
-0.4959521841644244
-0.15629174231612203
-0.5165203092661824
-0.5715388195154997
-0.4405181778890117
-0.23102440775808164
-0.4542092166368464
-0.3767194512089283
-0.6064375437049562
-0.48289363829516735
-0.37574970052021467
-0.3913779999999996
-0.4228297969932609
-0.5953013827724436
-0.678691822654253
-0.4631804333781105
-0.4373319212440974
-0.42933945056666284
-0.6435065075263483
-0.7212712744744695
-0.54215328361713
-0.4440654274908548
-0.4539566666666665
-0.5287803367343524
-0.7144965585115615
-0.5652324930973047
-0.47884407031249987
-0.4853742391964781
-0.3235742330100972
-0.6218298744589521
-0.5155123633672999
-0.4694183114279811
-0.5277974704861115
-0.41569890906669354
-0.44294662824344927
-0.6987103335399878
-0.47646559191382093
-0.4932276345653756
-0.5399074151684234
-0.46109053333333333
-0.4918014452052484
-0.5437448831297662
-0.6383587114801231
-0.43325269963635243
-0.49267203048421804
-0.5086037599999998
-0.46913979334573247
-0.5557579622881708
-0.4394294544327342
-0.5526371713438342
-0.3848566470170069
-0.4541973706734576
-0.4695018809671418
-0.46414993596150905
-0.40716447030442277
-0.5191561943282962
-0.6890119991667292
-0.42636972784290345
-0.49176065547784936
-0.5454089686050848
-0.8348001042832939
-0.6031483888555239
-0.5514404943031719
-0.8588457399081014
-0.8389942254270083
-0.7224745758269222
-0.9163612123992563
-0.7955695996044743
-0.5451317066198255
-0.38868609270808924
-0.026083813172716092
-0.5506505836507565
-0.3105376496173707
-0.02026888448658806
-0.5455329250297265
-0.2507454599371017
-0.07191002490888755
-0.5067001387345595
-0.23394282666459473
-0.11623942708333333
-0.26991753701780175
-0.5492621821801001
-0.5887733457325887
-0.4725292690638562
-0.5298511353884284
-0.26514101194708056
-0.10038790162385668
-0.4154901785300265
-0.4227620712483286
-0.4985451516496102
-0.27389061002818765
-0.28028740805951635
-0.3512013246737913
-0.4236029358601781
-0.5117893391485638
-0.5072585236724082
-0.3813122162206841
-0.4001717069642486
-0.4629512
-0.4673996127863335
-0.5033722420051484
-0.6532261172932722
-0.48562015383343576
-0.41105205130621325
-0.4457076221272693
-0.666121016069436
-0.5868837582339114
-0.5355558799937862
-0.4834120172608342
-0.4921415846938067
-0.5960079927737628
-0.5630161724297919
-0.5066653501999774
-0.5014696130208337
-0.5103535786361385
-0.38926513735077933
-0.5317418202564481
-0.4529751113728729
-0.5143086035957846
-0.5219691658446238
-0.48069516034986276
-0.5969911128332299
-0.6411415829716879
-0.5758717287969669
-0.47314491488146143
-0.5099325070500106
-0.5209420799999999
-0.44871912538588593
-0.46717186026736096
-0.6065553247153675
-0.44605439724197277
-0.4009387597202759
-0.4960282178687052
-0.5092603744575327
-0.4683300116335611
-0.44059825480471165
-0.5797313631938895
-0.33494103395977876
-0.3812109222710743
-0.5137356221109133
-0.45739472555700217
-0.3412919740855551
-0.5880732035015851
-0.6119648003904209
-0.3401567069301032
-0.4021642741550077
-0.6117974416201711
-0.7902349082517676
-0.4143027307706588
-0.5657585280828812
-0.8495509830875458
-0.6060503525630061
-0.7485690302567435
-0.7222393236205827
-0.7121360606648783
-0.3929488644348003
-0.5040389103763084
-0.16582213968852902
-0.1074547262197697
-0.4168631560091098
-0.5200891616198026
-0.1338467096000491
-0.18356558595519898
-0.46836780623010726
-0.49049120669394125
-0.15521776677340474
-0.25419270613763173
-0.4945892405561372
-0.4784409061694212
-0.24368071872944166
-0.4847305097694005
-0.5817282993507206
-0.6576401580905145
-0.3513196313287867
-0.3709521921942727
-0.3988067074300499
-0.16606712189424397
-0.3207480276090104
-0.3911863673624029
-0.2855076949970077
-0.40846918202581434
-0.3576683178964047
-0.295111325887899
-0.5090954343166776
-0.4554782551315825
-0.3706550290875939
-0.5088888450278118
-0.4116404842684442
-0.44984343374156666
-0.4544378522421988
-0.5293089175449474
-0.5368796354743264
-0.5630799602737664
-0.5648502296408071
-0.5266825389129975
-0.42190069143641556
-0.5177533912291977
-0.5870092680305844
-0.5653454006353195
-0.5880128741044985
-0.49411562345519394
-0.46936670076462056
-0.5707773962940852
-0.4952461507336223
-0.5775534707169112
-0.49034040906539483
-0.49998629389176524
-0.4369190018598879
-0.4759373778915206
-0.5503233907088242
-0.5158848953974519
-0.47494359012503
-0.48486424952570656
-0.6071844967968587
-0.5470493308104347
-0.5491623377952662
-0.41327271267522575
-0.4106494528451397
-0.5545804890101261
-0.5314721285795677
-0.45392625289675065
-0.5278234748722456
-0.4309498748302099
-0.29495412795396797
-0.4174529610250055
-0.5825027987931806
-0.3876421964171424
-0.42879482951022924
-0.5641426334830709
-0.3600061694969208
-0.2795738238974996
-0.5256477434885004
-0.368361229878082
-0.3887370395122964
-0.6315856211380773
-0.4557029699334893
-0.27835943649094336
-0.40535350070151005
-0.6730415542398274
-0.6088786277487547
-0.2838006924801519
-0.6232105304924754
-0.7167964245298729
-0.3999524588340974
-0.7125952669847636
-0.48557366001239805
-0.5455519548513585
-0.3092663869945581
-0.41919672091991056
-0.39803538944810696
-0.1556174695908017
-0.41350378658397885
-0.31736466290478166
-0.5161425102566869
-0.3841079358101156
-0.22156794785382183
-0.4893647999999998
-0.27860217933003717
-0.5562734616036891
-0.3695861191906626
-0.3498203893037632
-0.26526119718395774
-0.6030486371247723
-0.40504458646140007
-0.6307909040225397
-0.369609134744241
-0.5320724571192387
-0.30908333333333354
-0.2785205504102973
-0.3937639223996279
-0.3272075178490396
-0.3393704442439552
-0.6112776890945816
-0.3983486154164089
-0.3507538507037007
-0.357863121118057
-0.41174859857323276
-0.37074837689122225
-0.568699841685007
-0.49073852178551
-0.4312604239750984
-0.4802074896539405
-0.4897451467013882
-0.5321341555905738
-0.48468916694553665
-0.531511593304402
-0.5187867992849694
-0.6325560412813425
-0.5516233287869395
-0.5132731296824405
-0.48776301629113045
-0.5437000133199968
-0.5165326933333335
-0.6279778292213237
-0.5652597706941106
-0.4748313019327883
-0.3960346666666665
-0.5144353668113248
-0.5831886224178545
-0.6125167533395044
-0.4386126900129488
-0.44046578399156816
-0.4451601315698828
-0.5641064052796384
-0.6534526420714531
-0.43740419229685706
-0.40238990451388906
-0.4474141948126061
-0.5156464501377084
-0.47275222550150825
-0.44769457182772193
-0.3758888333532455
-0.30579620706757615
-0.5123128948047119
-0.6637661613981668
-0.4018943993232633
-0.4285972987016429
-0.41672179856526076
-0.2880729170565193
-0.31299095999999965
-0.6317998359554596
-0.2902318615795448
-0.357336959173127
-0.45871181524567045
-0.4437145493654882
-0.28431723160432626
-0.45226392891093153
-0.3165977556044027
-0.5035779622506832
-0.5453147991163196
-0.3012884751241219
-0.1868318396235268
-0.4879512262415628
-0.6373855518416254
-0.416672694713304
-0.15886597603493816
-0.6550077381514268
-0.5488800732520486
-0.2517723965480733
-0.630935737640087
-0.3585256955865636
-0.4708189545517605
-0.30516777777777815
-0.3524051514428084
-0.4767395961790868
-0.34261173926946503
-0.43800783580691344
-0.7042549845009299
-0.30230558035406807
-0.38559321934969165
-0.5219598619784573
-0.36990531301318286
-0.5462478072292143
-0.17417094750981613
-0.39192229687307883
-0.5327009981520713
-0.4303066108325397
-0.12784390404353524
-0.4743535880500466
-0.5254329068949876
-0.5867283941866657
-0.2415568788975014
-0.41602666666666677
-0.2744068
-0.35022441061993237
-0.374322470699237
-0.45526514805444235
-0.44337649819816977
-0.6828797820898681
-0.40638599133085646
-0.4240789320850642
-0.43029688223379564
-0.41219576335633806
-0.49019089756554085
-0.6100323572042502
-0.5787711272898532
-0.44296027730081583
-0.4649856385616858
-0.5528287286458333
-0.523684491768036
-0.513526062328383
-0.478624
-0.49751858439903235
-0.6199776819246775
-0.5698748772473651
-0.4538065777777777
-0.5367847692040452
-0.503899174071778
-0.543927488
-0.6726258628028069
-0.5234386905658296
-0.4351762987661976
-0.3771366666666665
-0.5567010569125853
-0.7063770802817708
-0.5818233373104941
-0.3830919572916667
-0.4196678074689484
-0.39506491284968054
-0.7143314399762942
-0.6649960183630452
-0.34498810365778065
-0.39441125289351864
-0.36768366172572176
-0.3705876709759783
-0.3659074770185207
-0.3068322114078131
-0.36752831761163857
-0.308416753461459
-0.4069998720000001
-0.7314387856014166
-0.30302432848116434
-0.32535042720876467
-0.33449005990090713
-0.37566278287117544
-0.28639884444444436
-0.5633885748295101
-0.1778023676397398
-0.29843
-0.3344102916722242
-0.41920940281898983
-0.39972631236639283
-0.34647644899083746
-0.36953729743285574
-0.5194341168238991
-0.4176964429462979
-0.16645452954362627
-0.12725391530783067
-0.5395886979184209
-0.5724277946984487
-0.2670810993510316
-0.10141854817708332
-0.6859381469684339
-0.41812753805164443
-0.23384754494730317
-0.5599434231457563
-0.43578919999999993
-0.6238220272783632
-0.23664599999999994
-0.3772744636403526
-0.4226126473617111
-0.5241581574931065
-0.5076284538027652
-0.7574026728147106
-0.23754201239925624
-0.290058850870496
-0.4512004990313218
-0.543232613522333
-0.5250965947923126
-0.15820876441413514
-0.23503274352564582
-0.5033630082184127
-0.5076444744796714
-0.19628843149411093
-0.3178140052243299
-0.5472720494075907
-0.46376888937111266
-0.343793292816537
-0.452812
-0.2671085753254806
-0.37201054837043007
-0.38981847567901734
-0.4471782244619808
-0.604526223178551
-0.6783489034421243
-0.45019901519632755
-0.4217938065714008
-0.45702614236111055
-0.35726856445727767
-0.4951391777747621
-0.6939683880635882
-0.5992420718890585
-0.36050526196872723
-0.44538869704484324
-0.5413573735364677
-0.5196723674429274
-0.5157963577185367
-0.45826400000000006
-0.4656751187018961
-0.6140107308845066
-0.5930478244725031
-0.43534053333333295
-0.4880076416776434
-0.5023102731969412
-0.6404467338954336
-0.6926263876181653
-0.47475656786251735
-0.41791936077872177
-0.37524436660467025
-0.6892053603600736
-0.7502921805270186
-0.5178602675503359
-0.38491596614583323
-0.39958344004798785
-0.23499022029306435
-0.7681140270881377
-0.5755165605290355
-0.35796656602603877
-0.41932905352345523
-0.19890720496284722
-0.22279357669916064
-0.273036342973889
-0.21693571905529652
-0.2745781936205143
-0.40234022987906326
-0.37522282666666684
-0.6443777124521819
-0.26943063136792933
-0.2575530563748343
-0.25642171334772684
-0.36855237133880275
-0.3963772747812897
-0.45484368464558766
-0.15360457688760712
-0.2659281242373331
-0.3381547709477195
-0.4423944501644586
-0.37693800474642764
-0.42627906802905563
-0.47975752696005375
-0.33769303424639135
-0.16566694376739516
-0.583655899277597
-0.49630520643413983
-0.28147084164104935
-0.6528113292270099
-0.4361699025192716
-0.5940878939593133
-0.16150302541847444
-0.32059651319659027
-0.3282292122893635
-0.513448748022102
-0.6414290976261797
-0.6382576428005978
-0.15004068170818452
-0.20037620581073765
-0.2883801695224247
-0.5627132381301773
-0.5408247191568505
-0.172479007959905
-0.19572055206541475
-0.3378167789455037
-0.5500181787372361
-0.3198766187807662
-0.2902638098765263
-0.44419541232638965
-0.3754818673197347
-0.4815116566817946
-0.5271505290349249
-0.32805515685058856
-0.2998971447206999
-0.3442874863721206
-0.3106810128426092
-0.5877033972031929
-0.7057625581652847
-0.4814703097747471
-0.4291496413128311
-0.3993831701459738
-0.30588032697804296
-0.3288791823103956
-0.6418473712552626
-0.4635461134443534
-0.31950031302335263
-0.4307039809071563
-0.5453948989587102
-0.4865689994117612
-0.5290970816973208
-0.46244586071502375
-0.42695516971381875
-0.5787734735945359
-0.6271407349899879
-0.4890905753805879
-0.45769227837956955
-0.5890752529477699
-0.6993147076172762
-0.6696613232735108
-0.4349559699592509
-0.41919458457242936
-0.2516032920024793
-0.745810796519983
-0.695300752891093
-0.4957292400732401
-0.42251147959289104
-0.2608660001483561
-0.06698676279769122
-0.6690610749962814
-0.5214749599917349
-0.4510680784991538
-0.34190267303258626
-0.08239906791227992
-0.2104551357334062
-0.26187392539780935
-0.26451966360546914
-0.18535254477900132
-0.40904836206314443
-0.4912653024674511
-0.5375137833344245
-0.265984226132748
-0.2863840514625125
-0.2918413054308973
-0.46828923926431015
-0.5125723497205162
-0.31484307512178544
-0.3298504362486201
-0.39556946094941087
-0.46137059970158695
-0.4458281171435719
-0.46295351798161904
-0.3784351941714141
-0.6118485679196458
-0.4582529837156437
-0.572266193069664
-0.19601095164290047
-0.18439773161739784
-0.22490108244294402
-0.31414400892420696
-0.6269066988665322
-0.5395680169223325
-0.18895121041021531
-0.11921788344173112
-0.17900004660887878
-0.35812747816817936
-0.5458401847489148
-0.28427811884305054
-0.23296764454482669
-0.1901729879392765
-0.43286030378177437
-0.4526630468835717
-0.34368568064217003
-0.2604980781249999
-0.3547405297661394
-0.5626053450637124
-0.5750783953296135
-0.41757799999999984
-0.2817447542026494
-0.2440941276191034
-0.21340745412736484
-0.3372132546118358
-0.6178436301960586
-0.5357940776331204
-0.43208050425940847
-0.3819045229327031
-0.28746775478073966
-0.23119658874147545
-0.3927593433087693
-0.36798730925151285
-0.3595184905472826
-0.4475253263391808
-0.5320627401041663
-0.44633142943325216
-0.5628788117253641
-0.391890667699938
-0.419337965495276
-0.5018143704045434
-0.6295531872287659
-0.5332699340497341
-0.49382406176665555
-0.6289296523391066
-0.6738849279999998
-0.595334760449097
-0.42037630348875393
-0.36206325997981925
-0.0777004047668237
-0.6573916488530688
-0.6004133774058
-0.5055031520757054
-0.4007527544462957
-0.11409597356371304
-0.1250914422561724
-0.5383276419106039
-0.5559302922621404
-0.462755882153066
-0.22789803665709366
-0.17726787901434848
-0.2963324333539987
-0.37371757221544205
-0.2127419448017883
-0.31941616134722933
-0.5480746832734037
-0.5537241604896036
-0.39803867751359395
-0.2533690527463666
-0.40614444488530604
-0.587674911551333
-0.39853518882729405
-0.35745661949317226
-0.4559954457655107
-0.4812328797650816
-0.44069605418474883
-0.5444345867388687
-0.33628666666666635
-0.18142954228338545
-0.16180921330117484
-0.16091614748747196
-0.35803191168992404
-0.4705703198695447
-0.34434582682372344
-0.1987153043744506
-0.20059111806867416
-0.12208234037047193
-0.39170933333333474
-0.42773133973961563
-0.37212956169817274
-0.1985132595355031
-0.18916713825170486
-0.5407524416201701
-0.47996751125271847
-0.189654921047576
-0.477513539169452
-0.5932151375710594
-0.572352
-0.4997500000000003
-0.3473116440779547
-0.2470563648469065
-0.22860677899054002
-0.14928088178549234
-0.33720599038967064
-0.588709513832704
-0.4243503304193277
-0.4118738958333328
-0.316524534956308
-0.27277581497277475
-0.19758173309621155
-0.36890140872139915
-0.3931297341372311
-0.46884580367844514
-0.46856395225694386
-0.41586137004216606
-0.5464354471371216
-0.2755710469105183
-0.4155421477318193
-0.41043437899722707
-0.5432753604050421
-0.5156083199999989
-0.49917387120160933
-0.5446653258937789
-0.5559076533333324
-0.48767863207098355
-0.40737793376130976
-0.2850984086046357
-0.11555600819982675
-0.49798891630502085
-0.4983698888003178
-0.47046989353848884
-0.341157751464877
-0.14282732451746807
-0.3298707108906798
-0.4271939298386321
-0.528078452879111
-0.38582096832501206
-0.1619361164679335
-0.37859297690731736
-0.3368297440554602
-0.17895833579150533
-0.46269157463938787
-0.5346182153431746
-0.2949207887614151
-0.27904155833936345
-0.5360095926206359
-0.3400696193428389
-0.43826730225103633
-0.45771107429342595
-0.4335411111111111
-0.32625289581802286
-0.2442633505081758
-0.2036315606901429
-0.08552444263524567
-0.3267575697458162
-0.43125517324516066
-0.38838193200335325
-0.3721699571946191
-0.12036504784266193
-0.15317143999999996
-0.47808699834676577
-0.535448808613254
-0.4124036685429519
-0.1195537139882845
-0.5476680540056488
-0.6215929963844663
-0.402277152558475
-0.6049598519437039
-0.5678572179155897
-0.5097266666666663
-0.4817008662946894
-0.384506928582746
-0.3560100893117768
-0.3244350924028747
-0.1793564893692459
-0.0858996657027673
-0.5457045200124743
-0.35593421264456393
-0.39809845052083287
-0.3744575578148304
-0.35296176570306526
-0.1786204596829191
-0.4082148110666371
-0.3956613535027902
-0.4149990986429693
-0.35283830878722006
-0.3779794172726448
-0.48224741633352836
-0.2880174720413436
-0.42873020671257467
-0.3550933268644912
-0.3962375118218933
-0.4119426666666654
-0.44642601833624246
-0.3930717166081133
-0.3883000180037206
-0.41042289096260903
-0.42915143817692675
-0.29598477484866126
-0.30949000000000004
-0.31323915765081484
-0.40714979209106145
-0.4486632637046058
-0.2719863498239669
-0.2950219955773247
-0.3187403035658712
-0.48162126545987666
-0.23861851151967875
-0.20485327256944477
-0.14718368774540241
-0.3232211152206724
-0.49693386553400837
-0.2359857333333335
-0.504260309256157
-0.4367665840049593
-0.3707246049459259
-0.39880694964865165
-0.42195213908397267
-0.3951268728215627
-0.09338884914196172
-0.1592547575945443
-0.39508694536251626
-0.4541332793410782
-0.580365202520914
-0.38343916059277716
-0.14019978243438813
-0.4703620194202483
-0.549476435129474
-0.6690051369848186
-0.39322396090089523
-0.5261502787742155
-0.6073274183473475
-0.6855451848958333
-0.5670113956227907
-0.5190864916434251
-0.4580625687125441
-0.3581953081215126
-0.310672008757594
-0.39109594975126094
-0.4482928477703057
-0.3503016543415258
-0.0878893360716232
-0.4609315494898753
-0.26382653176710674
-0.3170354111451237
-0.3561280727162084
-0.4446696790824552
-0.3148358207239866
-0.4869024470477586
-0.33130826677688163
-0.3103683505609283
-0.28478635772580224
-0.4138723476827646
-0.4657981918379577
-0.35806199999999994
-0.47606168249722397
-0.4292523977247669
-0.33658008536365086
-0.27924323507611787
-0.35119930027437235
-0.25382335599953604
-0.3136675679107253
-0.4619970948776048
-0.45721659772823925
-0.32349170599541205
-0.21330935958649674
-0.4457987734416265
-0.430767344058451
-0.22976584375000006
-0.36447111823181894
-0.48301700201536996
-0.16710280843149414
-0.28507696
-0.5753663095388662
-0.5468709721016739
-0.2765543914031826
-0.3440585694184603
-0.4691584820019739
-0.6066579453074055
-0.35730196469450815
-0.19702395166519482
-0.39285925964987584
-0.3927041166563612
-0.6049534155999402
-0.7014117230114487
-0.4323731576358733
-0.4817950530139301
-0.4473527876920615
-0.7167103425217115
-0.7649910260384375
-0.48993895392519443
-0.47838411097791517
-0.7537972048611109
-0.44139776246498214
-0.4824652003392975
-0.4532382083075015
-0.32241708968795224
-0.23794886560215578
-0.3320773797782064
-0.46028832423343496
-0.5682049731018813
-0.32154385795302665
-0.4261498624767653
-0.329055873228069
-0.28616580836260935
-0.28648722288394085
-0.4585474655094028
-0.5565601479331949
-0.5126848825241596
-0.25144922970939293
-0.3119428495461483
-0.3893251296863169
-0.4895009441009523
-0.4403612326927053
-0.43427462807587575
-0.5366833181692888
-0.43622235239978474
-0.2808081517255631
-0.2766896858815477
-0.2376091011308077
-0.4103414847613151
-0.5575852904012121
-0.4015177095240179
-0.3177258135044537
-0.5769866418737029
-0.38673384229601854
-0.5564690888882583
-0.4940405719776822
-0.6730219975793396
-0.3639889260866584
-0.3121910009940185
-0.3786129811987775
-0.6576572323955362
-0.673622050927131
-0.4524957884859607
-0.5104836155733529
-0.3386047956358799
-0.46652459177827427
-0.8259329124890192
-0.77330928
-0.5137926467357402
-0.3486437450974573
-0.5627084506993701
-0.9337962750568299
-0.43373754300385975
-0.3779187730626142
-0.6005210378376443
-0.35134136377536856
-0.4444761162900696
-0.4499491496176895
-0.3942099189664079
-0.32880525802169364
-0.31190340770241937
-0.38313839113404063
-0.6787284645450172
-0.6208420365216077
-0.40440172969621857
-0.4677833056258715
-0.37380673448810425
-0.30859536707636903
-0.41892929122313843
-0.7127488029486447
-0.48616682251786164
-0.2852383622423051
-0.424322206141497
-0.5191587039464897
-0.45703455534636017
-0.5021284676438075
-0.5460609255245572
-0.41825228054005753
-0.28474301204052116
-0.36153474351980514
-0.5572698979059427
-0.5475897347551477
-0.5164247252365223
-0.6228001101467244
-0.6637577910010463
-0.5107587858742465
-0.3647070698633133
-0.30472449890589925
-0.5657979436096313
-0.8443523888509904
-0.6919028332300061
-0.5757089046663814
-0.3134129417352234
-0.3475497923402911
-0.7282222320213552
-0.9483937333333335
-0.48029167301175407
-0.27031638828710763
-0.4177054022126174
-0.8236771449053838
-0.3433396837507267
-0.3194146481374646
-0.4165096599407159
-0.3048469857544879
-0.34987526993757084
-0.3805854108527136
-0.4185939999999998
-0.4631241738390765
-0.33223390326153274
-0.3562687676943881
-0.667059110344224
-0.798396408694004
-0.4722731688263376
-0.4398488363641253
-0.3738123602207822
-0.4185960331835379
-0.7255346079014685
-0.4540606477707015
-0.3804108870723051
-0.48208423515002136
-0.49148255468749996
-0.5309930328580287
-0.5355787253746768
-0.3379605493608157
-0.5150779362806389
-0.5896437599999999
-0.5831253353998761
-0.49781666666666696
-0.3907584902380614
-0.24705735361675527
-0.4845465773396765
-0.8226337933275426
-0.803504238479025
-0.4782190555899982
-0.2658672713446739
-0.25014675544138476
-0.5832709646049353
-0.9013340095887586
-0.37676234655920643
-0.1940188768145622
-0.32588172577496444
-0.6021094222229183
-0.2603376586071497
-0.2359052953664381
-0.3063857440724124
-0.22311244057224086
-0.25208761860465106
-0.29999
-0.4434837136007603
-0.2934437758948087
-0.3212868356847282
-0.6230230474977607
-0.8069947067634065
-0.37650595486111044
-0.35466070982024767
-0.38006644481654567
-0.6807649094244596
-0.3685346826823746
-0.4355394434992437