<?xml version="1.0" encoding="UTF-8"?>
<VTKFile type="UnstructuredGrid" version="0.1" byte_order="LittleEndian">
<UnstructuredGrid>
<Piece NumberOfPoints="1536" NumberOfCells="6750">
<PointData>
<DataArray type="Float64" Name="f" Format="ascii">
-0.5356000706801416
-0.49536
-0.4556763036714641
-0.4784960636121274
-0.4728451360902722
-0.5131224447524304
-0.3353854882778861
-0.4309613671875
-0.49575977676591615
-0.2782289340119056
-0.44182434903905765
-0.4784441679361698
-0.3171239837311668
-0.5035379999999999
-0.528023394316655
-0.38908643746813387
-0.5135684190948543
-0.5709901110353163
-0.5422694502654776
-0.5707515364744781
-0.4611957419603782
-0.5638324030167593
-0.49835698078115337
-0.3290485391238501
-0.49386863482620963
-0.25175471144024136
-0.5115248619237126
-0.399443241195099
-0.2505909443273399
-0.4409653872211248
-0.38638108393121756
-0.3249035333747922
-0.38745579637290445
-0.4364344500301956
-0.46603444376937436
-0.5563945917918415
-0.5414196076039401
-0.5882363019218847
-0.4865135443706598
-0.5643711811700556
-0.5341745103107095
-0.42074403488824524
-0.6067533448330775
-0.4315812833230006
-0.46834498828041765
-0.39827894285772497
-0.39864704212715485
-0.363357479851209
-0.5338918657841595
-0.442894636154982
-0.36848007263250787
-0.3593738260833303
-0.4219039362392855
-0.3647836005590967
-0.391938356289629
-0.4048947973665953
-0.30594771663241443
-0.43531628825239116
-0.3940214223186609
-0.5027523186531933
-0.5304376574231389
-0.5619905868981192
-0.4581976185466648
-0.5480158834815854
-0.4970856447173559
-0.4433395064918501
-0.47718218943719565
-0.5873207670645274
-0.4925124604998176
-0.4802739498183736
-0.5058963304193523
-0.34312345732589367
-0.563468742293526
-0.5262512460765888
-0.4468162913825171
-0.5071463704953986
-0.3843405599203209
-0.5205839306550667
-0.451693812187075
-0.3954248408896032
-0.44959707201621213
-0.4947140474993433
-0.3640112753344494
-0.40014994815345867
-0.461359571189865
-0.36868931579216
-0.3992572810403239
-0.4082240307292893
-0.4654132238065723
-0.5345125781791803
-0.5658853684833679
-0.5256533333333335
-0.4507331128195587
-0.5254852860787002
-0.4244310373263887
-0.5281265669111413
-0.4684777793371868
-0.5611872423376264
-0.5508326300160054
-0.44167797478817944
-0.37174321751499156
-0.48892069057049864
-0.6183597640170556
-0.6243900666425257
-0.42806760000000027
-0.4150445434358929
-0.35288666666666646
-0.5062492782942128
-0.6966891631236103
-0.6022543101383274
-0.3896429510229385
-0.4992121127366158
-0.6863071449307623
-0.5138199368967613
-0.4299175598670073
-0.42738277016553994
-0.5609348557548357
-0.5279514979156605
-0.39833046418590734
-0.5157016796874995
-0.5027227614358739
-0.410535853078106
-0.5772515540400905
-0.45511773118077836
-0.5972267999999997
-0.5884853399462698
-0.6000855788400468
-0.516248
-0.528106849525699
-0.5945440893498549
-0.47789849479166685
-0.5673664498046013
-0.601728672040675
-0.4308039578425295
-0.5991183190511987
-0.48853446243113824
-0.323224153221007
-0.5136109288530643
-0.6849280425630494
-0.615080834546548
-0.4187887999999998
-0.36906900007577753
-0.3499613883541182
-0.6067203467098371
-0.7941937287878459
-0.5686785385854338
-0.41448978425294486
-0.44854872417065533
-0.39896600000000004
-0.4280818180859443
-0.7150063132837178
-0.7799431168544849
-0.4968492460664064
-0.6358848979868253
-0.7270137031444377
-0.48012257050684903
-0.5268652746583059
-0.4738102463884928
-0.6122151667765097
-0.5215981697111717
-0.5339781376048732
-0.5534271718749999
-0.539616687028164
-0.5208213792960913
-0.5872353006819591
-0.538007455843682
-0.5644645600000001
-0.5404085629262244
-0.5448915950151899
-0.5165566584004961
-0.5732168339654616
-0.5945827764265804
-0.49762839520583607
-0.6091163191430734
-0.5899409834694324
-0.4088616516566867
-0.6474423349300298
-0.5688290837106091
-0.5516787672024884
-0.38691643748708376
-0.7130425063530038
-0.6071239163876251
-0.33726709457680476
-0.2947516243025419
-0.35435903519205936
-0.7218190826277356
-0.7636622126805305
-0.4982580761940194
-0.3849333829265137
-0.3806210160166987
-0.3876751941823853
-0.47441483038649507
-0.8410689347450283
-0.7160992495832477
-0.462426218941875
-0.5010824514070437
-0.3742781917751597
-0.5036184320681496
-0.5992333222489035
-0.8273633079724347
-0.625110073013784
-0.6946991011181162
-0.6489750016641236
-0.5458778206860834
-0.5828457383588846
-0.45875829964589426
-0.6176975399433232
-0.5629719628435622
-0.5702527340390072
-0.5007106118796063
-0.5966676461756506
-0.5371297054431975
-0.4832612231367064
-0.5518625544032386
-0.4507170151270919
-0.4488349955677588
-0.4567291949201468
-0.5680825284149614
-0.5615174921592396
-0.5567948569952464
-0.5255209586341839
-0.44823283749897774
-0.506424808453252
-0.3560156160190115
-0.594917921699775
-0.6504408400495967
-0.462589317505179
-0.31882214763380906
-0.6298085312139426
-0.7095219775696769
-0.5014692369858106
-0.43009140456033806
-0.30325441278158616
-0.6257892414586638
-0.8018660830042469
-0.5275466154240274
-0.26882283116346345
-0.3464592729902875
-0.3559897826726521
-0.6366763595867045
-0.8520131857311956
-0.5567361261913617
-0.3938980728184229
-0.29812805533685477
-0.5047955704978248
-0.4882448727259951
-0.745411035030083
-0.7822804526968387
-0.5066712759908097
-0.4563111788176661
-0.2655959537094447
-0.6018623309979785
-0.5731577419062436
-0.7486227453941275
-0.6859157655464422
-0.6817443610670005
-0.6056681479644559
-0.5876171582059491
-0.5300854907367308
-0.384228000299392
-0.6204437917035167
-0.5747979276214094
-0.4932760681513349
-0.4411649170100143
-0.617035950045014
-0.46618894874792477
-0.42603096198394264
-0.48768531924378694
-0.39259342500516664
-0.3689151531663013
-0.4916220539323514
-0.61158
-0.49945510905821805
-0.516299020419268
-0.37501685677083335
-0.46801592921467766
-0.6708487966522007
-0.5014895940821374
-0.46833467871965934
-0.3111229702417856
-0.42479607479031317
-0.2577088
-0.49863448754859624
-0.7317210986250159
-0.6994854446510982
-0.383908601031625
-0.2370213304401736
-0.47288942108964355
-0.7731985195772633
-0.7766718467346592
-0.4426688578907501
-0.3164838035343917
-0.4215322892130271
-0.7308117488420379
-0.8472870046854187
-0.5197302579394792
-0.32358887538747677
-0.3230737608023185
-0.48271069723444465
-0.620987798446793
-0.8534452069508602
-0.5865064910353381
-0.37626056633578836
-0.17229000585588827
-0.5054524804371076
-0.5895633724297373
-0.6856994380870187
-0.7559930392229802
-0.4922185264960109
-0.3421274037123769
-0.24676599999999999
-0.573747881801644
-0.5907227039037669
-0.670041269821589
-0.6679805008891176
-0.6274022540006011
-0.5702625170985739
-0.5149966601523458
-0.4226996686678069
-0.40750952842705684
-0.5914795957846372
-0.49004123113674164
-0.3978807969884002
-0.46320011197916683
-0.5234869515218622
-0.38243185135284996
-0.418332959082455
-0.3830399973791581
-0.34734863999999993
-0.2851350626162431
-0.5631682267964532
-0.5753299999999997
-0.4061296428792855
-0.46301262966017825
-0.5087329851392662
-0.30691964409722194
-0.4458934137101434
-0.28270674519528827
-0.5032158684124858
-0.6414816103056546
-0.8224245786319492
-0.6932200307963572
-0.48328894503365544
-0.4036605372513826
-0.24641613333333354
-0.32652514260441906
-0.26490611489977306
-0.4496546674884179
-0.6762942472049649
-0.927846933159984
-0.6805233333333326
-0.2352200032495039
-0.40047602703193275
-0.5758089564415111
-0.925138208731035
-0.7887699859466378
-0.42606245381277214
-0.3307930281602655
-0.4079615518222149
-0.7963442576407309
-0.8436835098379624
-0.5635722068241372
-0.35338088751922253
-0.2539330906756771
-0.5196767248516517
-0.655406987376331
-0.824546536130054
-0.5844142019425503
-0.2963998361234736
-0.1962518755450847
-0.4080767184680755
-0.5807993086568165
-0.6544764561666834
-0.7169735111111118
-0.464947656219544
-0.3375470923371254
-0.40571333333333426
-0.43976890292860804
-0.5094397899112498
-0.5913833380285182
-0.6139888220706764
-0.5492282633633757
-0.4515643366436955
-0.36556747863817135
-0.3695624125580819
-0.5755071996610667
-0.4647371247886633
-0.34105216979546243
-0.32971250639457766
-0.579202860243056
-0.35327407433484964
-0.31616255981482594
-0.45007257904525755
-0.3039913191363683
-0.322146
-0.2535399256044638
-0.5396305104676867
-0.48105872907625613
-0.3249403418355508
-0.44699790869797806
-0.3576043242405455
-0.2690227399521073
-0.3520579348532577
-0.2946693263070881
-0.28752120513147844
-0.3072396183825531
-0.36106222118863
-0.3854050318531
-0.34013950908976825
-0.46292
-0.46318319300638594
-0.431032709612086
-0.46861112440586944
-0.42905991307056895
-0.27130622036071944
-0.5800210382775468
-0.4918464399333404
-0.3777444880444705
-0.30420760547663245
-0.36246188871513324
-0.32420901153130754
-0.4713047254121782
-0.6613467589818431
-0.8608219076238778
-0.8197986666666672
-0.9498794488270453
-0.6269748973574014
-0.44242486015892796
-0.30008655610253493
-0.3805316978473741
-0.23998287810268734
-0.39125204569539146
-0.5164733863679841
-0.8634314667337007
-0.9370743706780754
-0.5806179999999993
-0.316510270252278
-0.37817970541528995
-0.648494214102119
-0.9157509296875009
-0.7098097701448727
-0.40876242215691655
-0.2773453136538059
-0.39644765268255705
-0.7951744314941106
-0.7747571371527769
-0.5426262686809982
-0.3496192082543966
-0.2863179101053932
-0.46670204732661885
-0.6043783393754775
-0.7514800626162423
-0.6183239999999995
-0.26254641660806805
-0.38054712849870237
-0.3779608528057088
-0.45538243079447943
-0.543224756948394
-0.6426916800000001
-0.4997364480264516
-0.48472126607893945
-0.5596693490390569
-0.33892845671561767
-0.3325179412887031
-0.4504502496465879
-0.5357308555486673
-0.4192333628411597
-0.26180107447298445
-0.24832095659876072
-0.43752013882035884
-0.6867302688820708
-0.2651476310700617
-0.2282849836577813
-0.33294316547588765
-0.6528493970619573
-0.2332423054767743
-0.28673936343783774
-0.48708180772453896
-0.26949802965724245
-0.3502241231659431
-0.31488181719950226
-0.4405413077770896
-0.33862669011939145
-0.27493836475123995
-0.40624298954907706
-0.2761233780531383
-0.3384061449063495
-0.38019924952119116
-0.2795274350193662
-0.44036067770241133
-0.3669606627062629
-0.35763266750368133
-0.4633446614583333
-0.46500676078265507
-0.37497492873588983
-0.44820000206654276
-0.4563053434593926
-0.4051232888366166
-0.3353813121661571
-0.3580413039330164
-0.7865502417626465
-0.5524569377764372
-0.37799596246982675
-0.3915050531540078
-0.39832360272783623
-0.3932674665595221
-0.4048860870488502
-0.3815612564729996
-0.5219132863921397
-0.8883402265457794
-0.8665060880347185
-0.6633747999999998
-0.9500260229190426
-0.7745476946201072
-0.43798047933021755
-0.37041839484742023
-0.3703452473549222
-0.3273342226716171
-0.3803371942467451
-0.5514969556286266
-0.8360580982089431
-0.7635197438154875
-0.4788170761865392
-0.35430110355492733
-0.35075827428492795
-0.641549726522074
-0.7851671901041669
-0.5707969321973269
-0.41378867666917757
-0.2584868167345965
-0.4567702865881369
-0.7424546979541229
-0.6232195287228794
-0.4879004274841006
-0.3790322231866088
-0.3908729282909696
-0.4337472831533748
-0.4741794617829101
-0.5882630210732462
-0.6258959359999996
-0.3627645957820738
-0.5446030084123655
-0.45083193487125134
-0.3472253696124587
-0.3534699509644313
-0.4848625269683809
-0.5086117197768134
-0.6105047090931186
-0.6028923372597643
-0.3687444972000325
-0.19512056646977496
-0.24868140100537692
-0.40034253578750884
-0.22042139650715362
-0.11990054094234341
-0.25517756480526715
-0.534316185633463
-0.6491698057860528
-0.11593119835139093
-0.2041884428600956
-0.39218473431090856
-0.5943827079377841
-0.17908424949332602
-0.3159296920480992
-0.46887988819722276
-0.306254056125741
-0.39527909733415995
-0.3982215997384857
-0.359223504856375
-0.32266162533113163
-0.3152327771888706
-0.4308279556457553
-0.3430087648083541
-0.2699714627797479
-0.32915717273984924
-0.5261018266600023
-0.3535419231309543
-0.2594183042595875
-0.4036700908719127
-0.5084210725356478
-0.3539477593206776
-0.30869977627820516
-0.4758548707738732
-0.436391088287959
-0.3442779857552733
-0.3930630843149411
-0.5954132262864235
-0.4011986221542927
-0.30922286335895427
-0.4348928014517568
-0.45202637892126507
-0.8094907029689343
-0.7132328986648022
-0.3599612227488133
-0.37510359400790166
-0.48645050652534055
-0.37958698513908556
-0.45680157454228326
-0.41299162447376697
-0.3246803975211989
-0.6218693229408848
-0.9027850309953432
-0.6966470039264311
-0.5144342944823306
-0.7544397073123151
-0.7682577061954846
-0.45101504515991503
-0.3561533891713164
-0.38678257098987734
-0.4074211084170039
-0.3627299055342013
-0.5583126863676428
-0.7050188260008737
-0.5559505318671208
-0.45579632430943023
-0.36852854746136193
-0.40680335431562936
-0.631907321680043
-0.5904542382104805
-0.4665694655537214
-0.4434334457532551
-0.34908861067668356
-0.5412744168216571
-0.5916995364953604
-0.4500528368491477
-0.4544361316896471
-0.40162208514155834
-0.48242170245428295
-0.43698509452347506
-0.35936704897167976
-0.3788877489167532
-0.5075969648109103
-0.45994071754422977
-0.628662633775069
-0.54775209856475
-0.3393979224451831
-0.19653958811267802
-0.2890932084866025
-0.39639258809576544
-0.6213263142378108
-0.6002601301921883
-0.48815925225735773
-0.19564433895169045
-0.09093832877536707
-0.22797276356415844
-0.0633682201348392
-0.10296060522422003
-0.3726201643302029
-0.5297622057907384
-0.5393997003414458
-0.06635095866703254
-0.28172912609503525
-0.4061967108125739
-0.4366064245327128
-0.21873488610473193
-0.3636635313092516
-0.38426055588108143
-0.3914653165716646
-0.4234013959909073
-0.45784974105246623
-0.42375433147344493
-0.312460505180094
-0.26045992761128817
-0.4600919270088623
-0.5601815262842375
-0.3544527549409659
-0.26771597156087373
-0.2330795223395504
-0.5082155353531591
-0.569044
-0.34108655825196904
-0.2510569783903722
-0.2689795491644454
-0.5070224676995556
-0.3224945655938538
-0.2747296104173215
-0.37533434528134085
-0.3803195271272068
-0.27949883184291296
-0.30788355032031395
-0.6506293333333337
-0.5133294244012613
-0.2604781912575349
-0.3811762535444736
-0.5403425706044787
-0.47317161739163816
-0.6647277096507548
-0.7745573435426877
-0.4492649023729007
-0.2714672883470683
-0.4814240608728144
-0.5079328242354989
-0.4756201837437741
-0.33121727724713446
-0.3417755092588503
-0.6995919157986106
-0.7457776993737251
-0.5505779407294078
-0.4848368952262864
-0.5632315320234814
-0.678106475961373
-0.5392725449473025
-0.33606863575118795
-0.384559343145547
-0.41228022928630453
-0.4371701866666661
-0.5794146757353681
-0.549209894441093
-0.4387378197031529
-0.49090733333333314
-0.40906470799752
-0.506875567100641
-0.5475552424830356
-0.400403300089174
-0.44672905499411003
-0.42773198939174767
-0.45134042616709374
-0.499654903279358
-0.38405797857566765
-0.3538468784722222
-0.416468798627095
-0.4156739675447741
-0.5807429572049508
-0.48745655344410993
-0.3070878549493337
-0.24251064517462262
-0.3457056574498871
-0.4136418071649554
-0.6676014555325204
-0.611007849904622
-0.4515458700708001
-0.16228798893389704
-0.1776529599999993
-0.2832903469709778
-0.5493451577543839
-0.5890430635658915
-0.5671088926603093
-0.34845076283996135
-0.07507986908589998
-0.14911143376730648
-0.04864733466507749
-0.23084372703064618
-0.4720403960612914
-0.39229465087825127
-0.45715368504154935
-0.13311848978687582
-0.39621467500663315
-0.3081075036417787
-0.31728750805474837
-0.35049450294888285
-0.3535359690015581
-0.3229463469061935
-0.4329313282657932
-0.4420745136950903
-0.4867782669306715
-0.5168299999999996
-0.39972095804741775
-0.20347090898861184
-0.3732627837515849
-0.6076961877276227
-0.5415085864848111
-0.4762642570779079
-0.33797787672093543
-0.18668205558074147
-0.37190971999429506
-0.5860034470415603
-0.46034199524695113
-0.30404011957465144
-0.21588536863015403
-0.37652711241306774
-0.4041811434869453
-0.2956165495741787
-0.30613574947690647
-0.3545707822068383
-0.3250198656330747
-0.3271033333333329
-0.560582
-0.6292463466082481
-0.34248734754155047
-0.2701947870398396
-0.5556132269040327
-0.6050450648326692
-0.5577268692815885
-0.6811761167090329
-0.6051883622685176
-0.2656408429261789
-0.3893104557276222
-0.6164501272083552
-0.4460389302760594
-0.260233104367751
-0.4850655486670787
-0.6743001036458334
-0.6075389460886581
-0.5411306729100042
-0.5655707999999999
-0.48169705118872547
-0.5630232942280978
-0.6028282145071292
-0.39623102222222134
-0.32900284954928344
-0.3797282558379828
-0.532392304
-0.5254316479317412
-0.39391683027920193
-0.48039942171244315
-0.4803777777777771
-0.4659204461252325
-0.5065492069992797
-0.37293806816125225
-0.35524866718750014
-0.43520095211523696
-0.3863238688433395
-0.4622357518001206
-0.37659305033921187
-0.28529304116552995
-0.33290131655092553
-0.4111481055002699
-0.5031488620031218
-0.6776344294015818
-0.5904329128805533
-0.3715939581907135
-0.23756722773300246
-0.2991629600000001
-0.3500199655455742
-0.6496471318690095
-0.6027256545302522
-0.6098507001930379
-0.29414225298519064
-0.21518568888888837
-0.31995543360198386
-0.4572806172773502
-0.5312099999999998
-0.4949444789646081
-0.5427717107407412
-0.21288589724172627
-0.21631125025831718
-0.1452883513522312
-0.41508229265522806
-0.41076774617165596
-0.24845826062559437
-0.45629321656643324
-0.2855048283753448
-0.3957052069221099
-0.20003601103343985
-0.37179822916666666
-0.4157909506858815
-0.3056172359196356
-0.38936119342839426
-0.4054626769332306
-0.4795539999999999
-0.49597203347799135
-0.5109633333333334
-0.5496696491612133
-0.27568458657987893
-0.3133203244357637
-0.5854556442576121
-0.6197588757659354
-0.5600675007232895
-0.48649973382433137
-0.2742900805324246
-0.32495166856680674
-0.5167094456292628
-0.5863359231246125
-0.4302524662098566
-0.31613924878582195
-0.30244482491239616
-0.5340085957842524
-0.3935693137148062
-0.371238030730136
-0.4040459761919521
-0.4561465980361759
-0.410598
-0.5078201223393265
-0.6058228062496126
-0.5150891046255398
-0.25956495192291124
-0.5459396898022727
-0.7134024823672815
-0.5870309938625728
-0.5953012371669382
-0.6284257673611111
-0.38320000784743863
-0.31314164953227325
-0.6656915276734082
-0.3870141735719807
-0.27493766395260777
-0.5680848210374041
-0.5773547924252059
-0.5752856369195297
-0.6711865778053321
-0.608182
-0.5764368709362041
-0.4554458787588747
-0.5449436768758099
-0.4740458933333329
-0.26777104927455186
-0.3986220289315971
-0.5409139074684853
-0.39005486485696567
-0.39173542438794834
-0.5548051090995513
-0.39831924502307653
-0.5060853300108504
-0.41169082278956703
-0.30324972808077894
-0.42074377517361117
-0.3763880222096258
-0.44124672319999697
-0.4173627809741652
-0.35905546335193245
-0.33039892849762365
-0.3436258741538294
-0.4966590167450418
-0.6361954772775121
-0.6874655474292907
-0.6562018690066421
-0.5318355689019505
-0.3289092902677188
-0.3681642400000004
-0.42366933009733015
-0.5684947432161533
-0.5225860789772058
-0.638352919574388
-0.49739751051397246
-0.3349789516566768
-0.4272460971275062
-0.42969815504233283
-0.344348604341353
-0.5658012926372625
-0.38139110689196465
-0.31474311334967203
-0.25384086938889977
-0.46148076649776876
-0.2636350051257254
-0.26747396061366757
-0.3812500103459607
-0.29085012489562784
-0.22260180629411022
-0.3589710536291822
-0.295596842102217
-0.37779181339702583
-0.4820188830336845
-0.5937238658077724
-0.4351573092605321
-0.35915157916668483
-0.5889572607970575
-0.6375180806885624
-0.5095459107354771
-0.5833329239042458
-0.43480382211552215
-0.435810712930019
-0.4618773265964042
-0.5467967055338112
-0.5580308338900596
-0.4839890169232693
-0.41884787905716053
-0.5679222617981797
-0.5184524132874949
-0.5071846180555549
-0.47608866910533815
-0.5402499540028188
-0.43866368154577373
-0.5852617830130188
-0.535704447541674
-0.5686541001514395
-0.34777970922187884
-0.5314018234404289
-0.7663576561708573
-0.7095800603430461
-0.6212140345289949
-0.531313428372321
-0.4619075778094323
-0.3057660984914239
-0.6484279825660415
-0.34163875774841407
-0.3416104154577402
-0.5116833952301079
-0.5223312250260471
-0.6642232456440555
-0.7586033543431842
-0.4987021859888416
-0.6992611851832158
-0.47701612170563995
-0.4572636499451595
-0.5004266255837978
-0.29628676119132835
-0.47185314740876544
-0.492408428352966
-0.3649202111185373
-0.5062630242103018
-0.4608662603903741
-0.3943219363504857
-0.4963652784287668
-0.41057520544740617
-0.3777460636331586
-0.39722969759861315
-0.3688128036510532
-0.5414831975092927
-0.4518981849472415
-0.432642272370325
-0.3759604707698235
-0.40229369578689034
-0.5554863837360801
-0.6733047081753388
-0.6089810229386234
-0.6020853751257126
-0.5840510147403339
-0.4396012423479951
-0.4269462196982847
-0.5155820318837774
-0.45796752883444564
-0.5189755568490194
-0.5472808260058274
-0.4174677709030787
-0.456492183556137
-0.2945246151884959
-0.4424919294345509
-0.4278399150023096
-0.34408673963432784
-0.32415167451369914
-0.38074149865820855
-0.2160993842961583
-0.3675678367531113
-0.231389697747468
-0.3123463760586226
-0.5192028676723834
-0.5010615412305394
-0.5321390303370083
-0.46077383144399947
-0.6366534512773634
-0.610371145824245
-0.3927825862335302
-0.5260949492392446
-0.5653909905743593
-0.5909677622713381
-0.5384065344905978
-0.35326643091008586
-0.5957562465287368
-0.5942622167692183
-0.6042434345939238
-0.4505144789400995
-0.5938099689348584
-0.5603725963541668
-0.4976621993227494
-0.4965293242179048
-0.3620069869807817
-0.6733028
-0.5481918692739912
-0.4740062558700994
-0.4344709810590412
-0.5187725926568861
-0.7649314013887613
-0.7711014689674177
-0.6902884516337034
-0.49304986114429755
-0.4380853221766418
-0.3537544649473033
-0.5876032500679791
-0.35412937622171686
-0.41167755533136696
-0.4704477038615094
-0.5690720885416666
-0.7469953989842087
-0.6352751036907768
-0.42537623186608803
-0.5795132297512251
-0.5827737997329104
-0.4881942500929946
-0.5223066990838325
-0.4123305201143453
-0.5375347894306611
-0.5219882079999998
-0.47470195076727917
-0.4539993295351045
-0.3499355416808614
-0.4409840015154651
-0.5115734477371358
-0.5218025784115171
-0.3847939248940111
-0.3366887398900857
-0.38025321906595627
-0.5481779122899475
-0.5456162306440991
-0.4411808862417501
-0.3787133493682566
-0.4175858606441663
-0.4839402075109262
-0.6211772690638561
-0.5107195007077739
-0.47058413375029867
-0.4545555973385588
-0.42632664495970246
-0.49201185920453755
-0.42565306525592833
-0.45452840625130614
-0.42024121970104017
-0.41925561870289035
-0.3794836283707355
-0.39531906450005855
-0.36034120715174917
-0.354723185250199
-0.33842075995040316
-0.34317317417687726
-0.5457899999999992
-0.3916841582169262
-0.4992228141346205
-0.5468128812087731
-0.6734193385426349
-0.6286788897899854
-0.31575306426947863
-0.36240834088864493
-0.6110301446480553
-0.6431762731411284
-0.6529715999999999
-0.20157728518288906
-0.5149777942297505
-0.6303082191960687
-0.6155498115313079
-0.31590176524075314
-0.5834227897942571
-0.5288793296598381
-0.45613765344418916
-0.4214278495090437
-0.324306
-0.674964
-0.5812008574617137
-0.3863536931300988
-0.45950160739874363
-0.5171745090142602
-0.7116121715258189
-0.6647374451530234
-0.7080604598342526
-0.5468676892361106
-0.41357340898456146
-0.4241097526435928
-0.5253146078760267
-0.4306920069586511
-0.47945381098849776
-0.5367911260591032
-0.6408016692708336
-0.6151740983683479
-0.5032370395501422
-0.4560460836949786
-0.39251526283487265
-0.5055413079000455
-0.6022613699111389
-0.58848856
-0.5242466529614872
-0.5852681157263901
-0.6380418666666668
-0.48016844174909673
-0.2960330259208994
-0.3650819463538771
-0.42164571507321297
-0.5928632957222572
-0.5655800514962953
-0.2913470126694275
-0.34431520107594776
-0.3227506697377293
-0.5481962512915887
-0.5855707938666602
-0.37803645019106846
-0.37175204279498536
-0.3261930555380605
-0.43928613900294516
-0.4169788679597622
-0.3704664404430417
-0.41387967877660636
-0.4384129011481033
-0.43896143380074576
-0.38542780992937137
-0.43149330726811913
-0.40613509675552795
-0.3798506595470797
-0.36186410552461296
-0.5362844444444438
-0.3466281358909739
-0.395890485654302
-0.5875656383345436
-0.6317884300237719
-0.6474198966728665
-0.3431387621409398
-0.2596247765466713
-0.5651739768241945
-0.6245201304597591
-0.6035744000000001
-0.2146799586691468
-0.43697546214087896
-0.6203388626086729
-0.5199175749781525
-0.2762306330509064
-0.5771858766931914
-0.49356670338816144
-0.4841595610391219
-0.4100681826012054
-0.4298600000000007
-0.6020355118826209
-0.579569000351333
-0.39673420960124445
-0.43057183511923647
-0.5301272281369248
-0.6158537851323626
-0.5244726213831178
-0.5860352944188585
-0.5956991840277776
-0.4529269520376336
-0.4591339439917354
-0.4982202492624231
-0.4820314343046786
-0.5207576584418271
-0.6170368808982576
-0.5454314492556148
-0.38834699849528137
-0.5170358124891824
-0.4620132845478037
-0.4051674537868147
-0.2770571135679694
-0.6005796997587676
-0.6493243111111116
-0.5600228583390766
-0.606041538196597
-0.7085457671915681
-0.3215181478284448
-0.2778065201015105
-0.39311015660126536
-0.46859666666666666
-0.6883591171499078
-0.47959247730249305
-0.238442067568158
-0.3408568574658162
-0.3695760127720255
-0.5704701833065736
-0.33525106911490626
-0.3350569377598358
-0.3443027430555556
-0.3768491754494732
-0.39104997664909574
-0.4552603865569687
-0.3887253333333334
-0.4518252770291768
-0.3727755837983052
-0.5217046965626505
-0.3652076230568264
-0.3558513143832985
-0.5580941239532534
-0.5688239150167891
-0.5737054011159329
-0.41134639745581675
-0.25759624465690956
-0.5232056432054885
-0.589976666832957
-0.48485695069229146
-0.29720504506869444
-0.39696507232577
-0.6265515431855616
-0.47277490070666056
-0.29489022455704406
-0.5965641291857221
-0.5322239895833334
-0.6213148461363595
-0.42092153468229915
-0.5388588200041327
-0.48909775759454427
-0.5030135024933068
-0.4365728113438492
-0.404111015360126
-0.4982488889764027
-0.5251251127512468
-0.5023023176895333
-0.35942779950459075
-0.5041720337398979
-0.4814502723106653
-0.4128076288406694
-0.44120888118323714
-0.42901725964449566
-0.4970423373699812
-0.587568152933852
-0.2879633771634118
-0.3399303052149892
-0.558136429414218
-0.4882080000000001
-0.5054003297917125
-0.17554418652883508
-0.4174548184687035
-0.6808386119446159
-0.5034969122709293
-0.6552553042526057
-0.6264855090142589
-0.17780855469740778
-0.3544720126593513
-0.46757639320478633
-0.7092892482161176
-0.35247022840123066
-0.2550333761617883
-0.40410875520833317
-0.5337878901357003
-0.32427795708179796
-0.36815592622442667
-0.3900956
-0.46254503410400444
-0.41807793924364534
-0.4527866398016116
-0.3586275373665276
-0.3566234725141752
-0.48573177494568814
-0.5022224075589422
-0.4698861973654588
-0.3921010667761054
-0.2505509582286984
-0.48312620418984414
-0.5332343471506539
-0.4230592521595374
-0.3042908177541895
-0.3305538212953855
-0.6423567687159051
-0.46620121698698086
-0.2993154448713549
-0.5568406354657024
-0.6406901388888893
-0.6938004461232438
-0.4152624760744014
-0.5590078301301922
-0.4358796054970035
-0.3321299616634486
-0.37940362431191593
-0.3705840722341219
-0.3704675072452986
-0.4137940242484118
-0.5728987221832941
-0.2459030721977796
-0.276254762977242
-0.4424134603200294
-0.32160980400909245
-0.28679257983254164
-0.3252754547924887
-0.49262930083172146
-0.41440651683207297
-0.11574466847534838
-0.45840585132260436
-0.5441656943583388
-0.5675457525627329
-0.2587270226554272
-0.21583652221225788
-0.6121990796858849
-0.5083407238425789
-0.6882019248576637
-0.4447098996982835
-0.1720425740162025
-0.45428593867857514
-0.6255264282300484
-0.2729962048200194
-0.34888554386425774
-0.450154763716891
-0.35454731680099166
-0.40426424902313235
-0.4061155404009093
-0.27174144047711307
-0.2868753243282702
-0.409858174478595
-0.36312373196899217
-0.3777713698878218
-0.3552838577389293
-0.19319890680466165
-0.3719249507049706
-0.4904374793820447
-0.35400616
-0.26573850491242673
-0.24226923220021837
-0.584812180901507
-0.4918756519942136
-0.2807782884260672
-0.455848325310029
-0.6865229276774646
-0.6316562521109541
-0.40662888697784355
-0.5472056147964455
-0.5245363313695084
-0.22566879479677118
-0.23485796753271607
-0.3116578340934754
-0.24960827000068844
-0.22348901942351496
-0.597089354205414
-0.3394693728380689
-0.11171256346725623
-0.3364407780028085
-0.30635533415082805
-0.16032942117245683
-0.3394279253852501
-0.4848224025141364
-0.2250354589483147
-0.1607539499060611
-0.5569008484708646
-0.4007252269725799
-0.1648444355363959
-0.44253839092098773
-0.5827716113990509
-0.6094806572997911
-0.29986056966615043
-0.2901709840567453
-0.46917225187060646
-0.28479952878693987
-0.3349440906808666
-0.4948335024978459
-0.20564375432854473
-0.18818688370824135
-0.336302243015272
-0.25943249686821684
-0.25779864600124003
-0.4260569760179595
-0.14931855578902986
-0.25400299850658653
-0.4636280348979936
-0.3109039999999999
-0.2984916745432376
-0.18941291529008272
-0.46961445576082267
-0.5188195864352291
-0.28190493515477455
-0.359156394469424
-0.608392787479496
-0.511873824051117
-0.4064623835273782
-0.5424343183462532
-0.611684
-0.28423229423584123
-0.12753077643429653
-0.2588494086177588
-0.24937937042670202
-0.1070923312690333
-0.47074491487382986
-0.13227833717960416
-0.2141512947576614
-0.3474050798107362
-0.20743655815024684
-0.4442637448034192
-0.38467885110359723
-0.17817307695762208
-0.31363625
-0.25388109671419723
-0.3124530950973305
-0.5464429061042546
-0.46824965732941864
-0.2483024
-0.2932368047117173
-0.5746033333333331
-0.23961097880091223
-0.1431066977513096
-0.28645554785983157
-0.2904888787119464
-0.202767850795619
-0.48753272163670236
-0.17989948212825577
-0.213229275576316
-0.42946745336500386
-0.34618178912998515
-0.3555760260384377
-0.20933419267337214
-0.3670337473107457
-0.49785301496020584
-0.2973495887580078
-0.3320765211941649
-0.45406552917080956
-0.4382795721957482
-0.3852233219638238
-0.49883
-0.38086557381114733
-0.13169443876004014
-0.223740127890137
-0.3029488192791519
-0.1850057450684808
-0.2540565060763887
-0.18743903161094844
-0.3278705695390452
-0.3212766658562499
-0.44134694500772387
-0.3082585020994432
-0.2430542922091341
-0.2524516000000001
-0.455537975866056
-0.3204266997313497