<?xml version="1.0" encoding="UTF-8"?>
<VTKFile type="UnstructuredGrid" version="0.1" byte_order="LittleEndian">
<UnstructuredGrid>
<Piece NumberOfPoints="1536" NumberOfCells="6750">
<PointData>
<DataArray type="Float64" Name="f" Format="ascii">
-0.44813278587223865
-0.43899
-0.3767046168478001
-0.5344746464959597
-0.32650577903155803
-0.4236717734019744
-0.34834282714806813
-0.2750989453125
-0.38221442445101905
-0.3835568412958014
-0.3326759764414135
-0.442288358588294
-0.43526299523425743
-0.40704319999999994
-0.5022882731477463
-0.4330214323051091
-0.39986701177929324
-0.4797952826227415
-0.5327032767396762
-0.503162198801405
-0.5122493737253311
-0.4204833016855201
-0.49605497933457354
-0.5108269484228075
-0.35716980306420526
-0.48886155435462003
-0.3957882745790871
-0.3862055958470331
-0.47560085716057016
-0.3732730613044728
-0.4276650530747101
-0.4612727002256286
-0.4380603778707872
-0.4017477415865844
-0.5009813608596819
-0.49324967347472704
-0.5814351037941099
-0.5190079014259145
-0.5687887870281134
-0.5011476932332186
-0.5331436202312266
-0.5971352488085092
-0.3625836624156405
-0.41272285802851816
-0.4701617321718257
-0.5556787476857092
-0.4332737133120952
-0.4940277160570367
-0.28209352108393015
-0.3466186348750813
-0.4189473176466419
-0.44756333532108344
-0.31423244419149815
-0.3711629820372236
-0.3923256877699379
-0.3720133595740697
-0.44535989234440093
-0.35969533056177244
-0.48375866125232486
-0.44548846333398545
-0.5894420045679833
-0.5264885430874148
-0.5811710621281091
-0.5668368772939786
-0.5952159761510685
-0.6353127788729381
-0.4743655682976983
-0.4508111586233063
-0.5593162941519784
-0.6146663256134578
-0.34265850169879575
-0.3164278693945026
-0.3383208352522286
-0.49385251366463473
-0.5324983987600749
-0.4410445813956803
-0.43242765166059455
-0.3119599336549577
-0.2850427397680055
-0.28425080693936516
-0.4015941306834649
-0.3371673233921913
-0.3186055708856124
-0.3568849702423234
-0.3335515185427638
-0.3567781348869492
-0.43841511242543046
-0.32332611925826626
-0.4530451910725353
-0.3892392479206773
-0.5819903589026466
-0.5158633333333336
-0.5729258734784138
-0.5925773439443364
-0.6499926822916668
-0.6079876878516759
-0.5246096685043905
-0.5262319856453087
-0.5828998148947302
-0.6567125397809467
-0.45318656706470833
-0.38444514817673897
-0.41232535603945136
-0.5330230251058511
-0.5761202666666667
-0.3625475157517029
-0.29204999999999964
-0.2810298601434947
-0.34826556164602596
-0.47636517512137827
-0.45531655713990477
-0.4116609295236466
-0.3478693882436532
-0.2753554225986206
-0.3564014286293418
-0.26117134684936
-0.35158156155085935
-0.3155547904892531
-0.38830803665403457
-0.3208637977430557
-0.3130474405776686
-0.38122164275484655
-0.3738349834676589
-0.30526604266096447
-0.3767529333333339
-0.33037284562926256
-0.5627762498880556
-0.451186
-0.5031635850951702
-0.5712312178298232
-0.5928678515624999
-0.6071717247814
-0.602189470926534
-0.6195519156850589
-0.5335560468012558
-0.5415698227782713
-0.49731717619776733
-0.4092615092515841
-0.42699765352803704
-0.5929684132140453
-0.5640023200000001
-0.43181442377773666
-0.38395070690683936
-0.2831914140628032
-0.3564174207866919
-0.5500569482436735
-0.4749263831370118
-0.3881525469511829
-0.42045200000000005
-0.32995835000751944
-0.24913357439001613
-0.3547081290741296
-0.4702996702510352
-0.3568445166877728
-0.2929517145812713
-0.34121443475256474
-0.4048705111179174
-0.3563355031310063
-0.3316907124670422
-0.3556427943324891
-0.40498507305600184
-0.33439296614583336
-0.3204007419771409
-0.3535527109320001
-0.31362228890266586
-0.26615082532099127
-0.28178296
-0.24700864848109108
-0.5085270853328374
-0.4140868030584832
-0.45965139879083233
-0.5232786032454021
-0.5536087809012711
-0.555337775366812
-0.593306028202898
-0.5975159676883947
-0.5103872465409031
-0.5428600966976698
-0.6203736553770578
-0.5608856312461253
-0.46280299452213747
-0.41709495412236214
-0.4632433606096465
-0.4903180336846455
-0.33939072501789086
-0.2782272794376582
-0.4325626040448079
-0.5939252495901788
-0.486497173665943
-0.5136864453675578
-0.4234004809649901
-0.2527921022177378
-0.21798267235609006
-0.4454550494041469
-0.5209601419480477
-0.4745505071907365
-0.5243876172762968
-0.40723715422274326
-0.2469301841553869
-0.25289178372066606
-0.43377351867774033
-0.3070491894420387
-0.2845114143163363
-0.40473827593200423
-0.43865137548173894
-0.44844217575309303
-0.3173287037798468
-0.36737065895157456
-0.35577164991444854
-0.36689361413692795
-0.29910094777053636
-0.2458433084423505
-0.2756482855965818
-0.1638563613341859
-0.18241019061789585
-0.1258201689879072
-0.47346328754231054
-0.43011099607356884
-0.48430288135806693
-0.49186090473238314
-0.5016709323648468
-0.5695620396735831
-0.5855431052269857
-0.6168387858123324
-0.5055733039259791
-0.48950923227939686
-0.6213287805754463
-0.5915417541227527
-0.5453566152116379
-0.420367410024322
-0.4412754459604639
-0.5894791637532735
-0.5161645687985109
-0.5671455635623949
-0.339406967733411
-0.33130862300822383
-0.45915780946476503
-0.5752612130605498
-0.3706422097030611
-0.22392672094384083
-0.2935396494679828
-0.585756674230213
-0.5163136134318557
-0.5858245845282731
-0.523649384331799
-0.32483252754852016
-0.1715671825976766
-0.31960386385616774
-0.5555373661831624
-0.534077188431762
-0.4558223145277957
-0.47515491944627425
-0.3145667919362427
-0.18560987315363722
-0.3529801161767238
-0.24989680952709484
-0.2914023872700973
-0.3953155074076522
-0.44290598210436355
-0.44177444967266494
-0.2773078526866403
-0.28816464355445337
-0.2955211201042502
-0.3784672407659446
-0.21134714117497214
-0.13967943501036564
-0.2570393611369162
-0.0647920993962717
-0.11935517057656557
-0.035480986473946693
-0.4624211549526773
-0.40272600000000003
-0.49683856023312045
-0.5138840632709466
-0.5741395677083333
-0.4771480632669756
-0.43558334407935545
-0.5348778583771773
-0.5961660830358221
-0.5984709764414137
-0.6199916706134903
-0.5781951999999999
-0.6141470172332574
-0.46360084038316
-0.4097572060343045
-0.5710653530586344
-0.5277446174829511
-0.6359321156054434
-0.4909178217526217
-0.36457045033542546
-0.42040318591995557
-0.4906984784931136
-0.6250688354316281
-0.48984675754400203
-0.29730003850639863
-0.35982722293586183
-0.5446762727836331
-0.6506399019643517
-0.48141644902799935
-0.3023545376891095
-0.22340402666138906
-0.5076986216491014
-0.5851451138936444
-0.5203464584614576
-0.5892499217123764
-0.4279027865753838
-0.24471615530177027
-0.20513534688985227
-0.5070158364897114
-0.4910023773699433
-0.35582
-0.4893397048472525
-0.36097302339562076
-0.18785913351243325
-0.2506130020010735
-0.20416333908540252
-0.2695337152882828
-0.34953758786126526
-0.4050234171134284
-0.40451528117056235
-0.22535954247898257
-0.21064902258089638
-0.25799160264449567
-0.3817128541666666
-0.1582619680245443
-0.11158227294239255
-0.27630308555486677
-0.057289351554363516
-0.1581188
-0.09282324885306878
-0.41961156298179275
-0.3558633333333333
-0.49067452332237976
-0.491377398670332
-0.5030684955376651
-0.5396420616319443
-0.5754534531279062
-0.4991916635668519
-0.5574847852107153
-0.4567017461193394
-0.39180196817524254
-0.5377538111578636
-0.6291954226408477
-0.5662494232888252
-0.4580590666666658
-0.5006873175522345
-0.4447804381070463
-0.6100545153558508
-0.6222687424853374
-0.4296127224419984
-0.3746633333333336
-0.4383902277025851
-0.5398582255257618
-0.6292315248410207
-0.4556658135365002
-0.37592954650353705
-0.4555710192188463
-0.48433642540062577
-0.6178799652663506
-0.418330900698076
-0.34361420862268477
-0.437776024521888
-0.603698589162156
-0.6087046716378361
-0.5488218524978395
-0.4158815074018823
-0.2593722129227795
-0.3931433643149409
-0.6031307114887569
-0.43110952524438423
-0.5446299553724411
-0.4632685004889326
-0.35192873933056057
-0.18227168888888826
-0.4004762348104946
-0.428488572181371
-0.30910333333333323
-0.43178921220125593
-0.3591241378297305
-0.24511263733829305
-0.20100253427016565
-0.20869126081498154
-0.2629229346937667
-0.2987188611523386
-0.3723327971164884
-0.3495373362680056
-0.24251764382884003
-0.1950382189455366
-0.25821023889085976
-0.34024434027777756
-0.1885835796700899
-0.15880855067022148
-0.28315534821244054
-0.13679547419625723
-0.24458640000000034
-0.2526810601363925
-0.3973054770909546
-0.4403103451126256
-0.5353803082709199
-0.49215344603005734
-0.6071465964042158
-0.603036653141248
-0.6016315870607621
-0.6633205693325067
-0.5976356254672829
-0.5970857953681438
-0.5872568496124037
-0.5063529132006279
-0.5732635037860606
-0.47363
-0.36796057784115566
-0.5537459551119102
-0.47880563050216934
-0.503289430365843
-0.47834364199892837
-0.5284823237340309
-0.5338659727247498
-0.5400806131876847
-0.31363678899241376
-0.47037449637997913
-0.21637508080182014
-0.5787893957162832
-0.5796143552600568
-0.4243433684686159
-0.3349706666666669
-0.4958528755368115
-0.6421300120600347
-0.5143401160448273
-0.3777297223083326
-0.23347562261036134
-0.33951692855724774
-0.3937338938045054
-0.6119166097384537
-0.5950414775790898
-0.379667208465084
-0.35809733333333377
-0.33253603307147334
-0.5436551506034811
-0.6081305523491287
-0.41428147048611136
-0.3925787614028564
-0.44968283978067647
-0.5184179495482663
-0.5861314998189058
-0.37292593263070906
-0.4050697265625001
-0.4608612947220662
-0.5830647890041354
-0.5170116152097538
-0.5292667156610311
-0.4524575957157572
-0.35998797251498255
-0.31630042666666713
-0.5749713255870573
-0.37324411474156277
-0.4665647238769703
-0.4253932763145236
-0.40392304906333076
-0.2689089066666667
-0.32140018640214946
-0.35735994321432085
-0.272491262657574
-0.3808044391564629
-0.3350178395820373
-0.3244776473726923
-0.24269061748295065
-0.29576456800722045
-0.2927510833976806
-0.27258474920204906
-0.31387284819671457
-0.26545644446854977
-0.3135965212028609
-0.20407096344699274
-0.2525076942787467
-0.25317441449572103
-0.2218128401276203
-0.22353611072671062
-0.23711042962115428
-0.24270155703900628
-0.2718931373424262
-0.34820249776209916
-0.46356034063511736
-0.5586992576557376
-0.4318238683983647
-0.511497907101967
-0.584197867281508
-0.41702816944008525
-0.5361007660553908
-0.5419709241191887
-0.3873520128095393
-0.46800706614091775
-0.5216262374116313
-0.3008987369791667
-0.46665810784476874
-0.4579241657344805
-0.4991034242612115
-0.5550602944823311
-0.516522033303591
-0.5058691638379943
-0.17558672069368955
-0.4968148308283488
-0.5517941566059713
-0.5290004326599488
-0.3515277090693197
-0.04410089097334157
-0.21863803891019418
-0.08493372995123695
-0.42624073213498614
-0.5597982933158647
-0.5161483768307794
-0.3053055069918033
-0.2788103999999999
-0.36498046311760807
-0.6056242860094619
-0.4864179319251634
-0.27931750617896256
-0.18229250889962237
-0.223248071320577
-0.3740205374085555
-0.6338404875860841
-0.4895155071963053
-0.32097107932295876
-0.3183946417992701
-0.3417239868750839
-0.6083424319634928
-0.5387947401952514
-0.36546601406250007
-0.377043451749086
-0.4289405692409017
-0.6076768915508567
-0.5181322865605859
-0.3644020424054559
-0.4334853689926756
-0.4438204161654617
-0.5250879975201489
-0.42237860680581313
-0.49396896430303455
-0.4249130591031955
-0.44924610775196555
-0.32018744
-0.5091273198534463
-0.29885736327207774
-0.38134665214649915
-0.4116023661695662
-0.4094017257868827
-0.40063890796996665
-0.3157972669559826
-0.25462468464443305
-0.2657702169869807
-0.3307316472524662
-0.33069669169476607
-0.40757405920515377
-0.3657408718168725
-0.41473055631277295
-0.3059443720520767
-0.2654141226966899
-0.2197508796022116
-0.19014200007210924
-0.3286099066738823
-0.22720477218433555
-0.2216782957256348
-0.1455302780791485
-0.24365602091179758
-0.27132104739790613
-0.1442838849576961
-0.33892390261590005
-0.22919329696218224
-0.3494008341113296
-0.5032520603430458
-0.5460254331001408
-0.44726220881896944
-0.2149572356599816
-0.4675712112137295
-0.5350539792937158
-0.4183143612569633
-0.3189191012573867
-0.43254756875898676
-0.4637320214340194
-0.4591549202857385
-0.33668283013019223
-0.3405577019609857
-0.4523666856598238
-0.4293721863194682
-0.4354803592699626
-0.3126356435963609
-0.38131189708617486
-0.5396737747468477
-0.49859415883513075
-0.517936282841781
-0.2579149010865007
-0.13704396993180498
-0.30306707515326975
-0.4948370639354524
-0.48414938120097334
-0.3940429672390409
-0.13969789857641549
-0.1716930269227086
-0.13677311155783914
-0.2383813906289911
-0.39319592578485363
-0.5147436001272213
-0.32674067395292306
-0.19081389522628592
-0.25755959413101875
-0.2355703006549498
-0.4753737255427737
-0.5126801426911206
-0.26839712791899123
-0.16727153309292667
-0.23115214380741186
-0.4807000020500107
-0.5856490895471302
-0.35138570617530296
-0.30080293422706794
-0.3065810411930841
-0.4990055027457609
-0.6102242119032865
-0.42771588296238733
-0.3628986572700865
-0.35812085410415473
-0.4313365331680093
-0.6337879893737683
-0.4299403152882833
-0.4092885052162589
-0.4204800365779848
-0.45448800484707924
-0.44916461148997683
-0.3086116156392061
-0.44615847128482616
-0.4293621600817144
-0.47957249256819745
-0.4020168122587317
-0.43277812164659313
-0.2607226655730352
-0.27034439677058025
-0.408926861385843
-0.4152123109805934
-0.5053933764965208
-0.39386210362436785
-0.18841881057963816
-0.26386103430460833
-0.2515246968899805
-0.340068952365679
-0.44155447386650176
-0.5013659893924302
-0.449003184172513
-0.2975947151890886
-0.26315652989465027
-0.1450308321644593
-0.12903429345535047
-0.2969515690452661
-0.2909355444108641
-0.17769506752161568
-0.03752862387349155
-0.32388009552710134
-0.28609176759974003
-0.05428670799828849
-0.39926292712748485
-0.19150992998553404
-0.3326534166785495
-0.4922609857408548
-0.4820527105649924
-0.4868894708007285
-0.3006154883672812
-0.3227100253436685
-0.42525755470433985
-0.45462415960403985
-0.45110742657763886
-0.44130363338598805
-0.39810720000000005
-0.3857008417356292
-0.3869697826228757
-0.4743879583566825
-0.477181835853333
-0.3224195070217393
-0.3647626707818876
-0.4377679281470109
-0.36308028674730636
-0.24969676479294825
-0.2657118412895223
-0.34064533333333463
-0.4576617047022283
-0.4905054041567869
-0.39359970280223044
-0.26795132991151766
-0.3172653433206612
-0.11488667633808662
-0.3151763445966902
-0.4433035264886998
-0.43052374280662115
-0.2916498668937038
-0.30882500575632216
-0.24474111783635968
-0.31600372891011125
-0.4177671349286241
-0.39374534375000075
-0.15179523621657512
-0.18999335979321488
-0.2888624536061167
-0.22058322821197393
-0.30942283734533244
-0.47756342839429716
-0.3876068160639256
-0.24878763731759243
-0.4019546648402175
-0.53135904
-0.4437242035687388
-0.2997621683890144
-0.32200146412103786
-0.34269933333333347
-0.6132072581111798
-0.49995377523455237
-0.3693141412440166
-0.3858698055988776
-0.38028001306135967
-0.42961239718950145
-0.544895031764157
-0.39285403129551466
-0.4485686152671509
-0.4122342065972225
-0.46318819897873986
-0.35090096551807687
-0.25169286349595194
-0.35984991714471426
-0.45076883362322334
-0.4603993397396155
-0.4756881449225043
-0.4063360446787441
-0.27121101270480247
-0.2156899583534727
-0.36642333947276556
-0.41260322315551906
-0.5252684533333335
-0.48064387522732915
-0.17977915967843835
-0.2599859452196382
-0.20345544476880606
-0.3483965902447856
-0.4039200031135912
-0.5431570006199626
-0.3966863343560139
-0.32527593649643727
-0.2572818448921182
-0.11799011501156893
-0.12158753796541218
-0.32331811193954435
-0.34903337097251885
-0.16092369440101265
-0.027071293327546115
-0.42311845447766233
-0.3045591789419697
-0.0697245735423262
-0.4284168534551283
-0.2203387478242891
-0.33375355013448543
-0.3512355555555566
-0.4247422984248103
-0.5095491964027322
-0.43020117637065414
-0.46886275693592533
-0.38362278983261006
-0.3272176269201634
-0.39504628295425276
-0.4908670486863223
-0.50874363818945
-0.5303329430632198
-0.3498260911345321
-0.35662642691901314
-0.4813876842459373
-0.4998892288336642
-0.3851442457119237
-0.3069336953543707
-0.42856591694758733
-0.2733921001958387
-0.32318481757105916
-0.2631499999999995
-0.12222239999999991
-0.331668076273931
-0.4534239492637185
-0.5264850970911913
-0.41926575117886666
-0.4869763207674976
-0.12069881212853077
-0.13651614458924918
-0.348167280092593
-0.47455369967783584
-0.46972285539165876
-0.43401613530695765
-0.39592719086603084
-0.4639819024322805
-0.3835667920369226
-0.24130166510416662
-0.1441363086924081
-0.2829771335756977
-0.3467508000000001
-0.3020186241021463
-0.2380939494447587
-0.343054847613143
-0.443942088888889
-0.4407121567358088
-0.5338049610801124
-0.4338971359999999
-0.3258101468206107
-0.3404673007730849
-0.3703463493582986
-0.3881444444444448
-0.5596302340979539
-0.38231693221544005
-0.37175833785076384
-0.39916877499999975
-0.4204087225907786
-0.41259295644830735
-0.4357352929095591
-0.38234675655696365
-0.4287084255424674
-0.427213686342593
-0.43857389272593933
-0.30840489148152667
-0.32346027977524366
-0.3110371441361719
-0.44893502120313383
-0.4340929634221949
-0.46667790400000014
-0.3880049186230308
-0.2909391658001766
-0.2822273724625645
-0.32542837102566574
-0.4070661503082029
-0.48441493333333324
-0.48592266088034725
-0.2131243272264326
-0.36119000000000007
-0.24792121046196416
-0.3442971956261003
-0.3667220717946227
-0.5132739002548731
-0.35921876885967535
-0.3639723874811331
-0.2854196229517039
-0.1651933128925105
-0.24356056482112967
-0.38753278017427023
-0.3902837810434363
-0.21429437721937913
-0.18011657552083335
-0.4769556151937477
-0.34859568518875156
-0.23527325170489768
-0.44083497336474137
-0.33536959999999993
-0.3654910415375078
-0.17977066666666694
-0.31507592899609377
-0.4843253699640259
-0.5670978109184072
-0.5419835839826982
-0.5138496632477171
-0.2355204182682368
-0.29968889854025077
-0.47814319611412465
-0.5696740416678501
-0.5534466796445549
-0.3367161345319282
-0.3225218543391248
-0.4423621860661679
-0.5119278354736718
-0.4509995610663366
-0.2932710311854645
-0.3801007300734696
-0.2394233637133939
-0.45970575627907
-0.41152
-0.12383621946683256
-0.18993901295802615
-0.3493443380964277
-0.5839444700754579
-0.5733025908523522
-0.5633868827447329
-0.27427227498664175
-0.12541117078715883
-0.22437161284722232
-0.42099529789283113
-0.6178787882806405
-0.5334815842414606
-0.5751031124722416
-0.5035934048908176
-0.26176651746228524
-0.1769761725417829
-0.2686839854717266
-0.37337789811944616
-0.389712666666667
-0.38715304894259545
-0.27654283279363795
-0.23096425444329063
-0.35089543999999967
-0.5523624270375694
-0.4984574197148168
-0.3097720382889024
-0.29380141447580493
-0.3830646981556107
-0.4163091742410152
-0.45144239581180634
-0.4366566136865592
-0.31623320616094125
-0.36915687672195324
-0.4155007100694447
-0.4612359044827889
-0.4270810142740067
-0.3494342468631912
-0.35919845859888366
-0.4195003467658609
-0.4571882485817634
-0.42656502931277324
-0.4097482546064501
-0.41181657830738855
-0.3782785439895627
-0.43225176855706526
-0.4336736979903542
-0.4721730400000001
-0.34940220535079475
-0.38025816789633615
-0.38575752228596666
-0.35341446586463016
-0.39644025193591054
-0.44962590590342316
-0.5133280243852038
-0.31792016220585356
-0.3533049456338411
-0.3572639621654774
-0.35016935471242844
-0.4853731034008864
-0.3453084790991356
-0.38777526001147683
-0.3606530827701475
-0.293455768120452
-0.42332473805569565
-0.4291723745766076
-0.3342305658107106
-0.4864431391455177
-0.4111317756422182
-0.4399556403953605
-0.19250275056830016
-0.21126812301562603
-0.35864697773650156
-0.5995304769656967
-0.590951777928863
-0.5518185083693697
-0.2909219434240916
-0.23037342140154324
-0.3737473578920054
-0.5494860292100321
-0.5434249055176689
-0.4097280043030344
-0.3037532130251617
-0.35817457721746754
-0.47703975104822854
-0.49581234727004814
-0.33664677114004776
-0.31222984809027793
-0.3289052356624714
-0.521375914041223
-0.5176769053523456
-0.2808280351312247
-0.1824807817683708
-0.23305361219120255
-0.49016810548451256
-0.6549978881885195
-0.5602822949180019
-0.3839878398429429
-0.23177490605824178
-0.18008344361800696
-0.2879661807830232
-0.6103856196321561
-0.6234392044337776
-0.6411942955344359
-0.38460232957222495
-0.17979654974899317
-0.1976580027510849
-0.3579395301736181
-0.40517096610870035
-0.4651757528414955
-0.41875194533559207
-0.31466678729571407
-0.20065778415583146
-0.2518971424536745
-0.4821815940216058
-0.40335202972520207
-0.2531938371151065
-0.3070293466923213
-0.39527984647354875
-0.47096843789545945
-0.5191389904939036
-0.3467741365942432
-0.3244301727960322
-0.39180719887187015
-0.4473327580546727
-0.49884597767577804
-0.4951647231388003
-0.3356096259560321
-0.4280056041468629
-0.4458482105373947
-0.47699479557910546
-0.44972578791706624
-0.5073110731674648
-0.46354253151477554
-0.475759583685843
-0.41784422049945813
-0.4351513519404169
-0.5162225161892949
-0.4444374946351681
-0.4735726405239724
-0.4406441749446584
-0.3852818640634492
-0.41160966298822
-0.5852116283503002
-0.4743758969777347
-0.41784089518795686
-0.34642594353688677
-0.4273013330250806
-0.33383764943730115
-0.42055980788555486
-0.4613736231909262
-0.4321769313983821
-0.47026620529034907
-0.477996438079886
-0.3093925256595713
-0.2442906654029192
-0.2457270818205596
-0.4925196502882598
-0.5860804669097776
-0.5053336834246238
-0.3939871367878282
-0.3020395144708256
-0.29459556912854357
-0.44978253661417084
-0.5005805778053315
-0.4924297429457288
-0.3648697290155372
-0.32284999939922465
-0.3876756902252536
-0.4999565344721013
-0.40017001133739954
-0.3132164296875
-0.423660196646033
-0.4564523594919195
-0.4467964186815464
-0.3477252000000001
-0.2585423451404258
-0.22638962562415707
-0.34402876930234777
-0.6066208302128543
-0.5485466587745133
-0.39740036061169687
-0.2639829304730608
-0.20638615162933982
-0.22601901253768816
-0.46269985138251707
-0.6397947823011104
-0.5270697927437062
-0.2838848671140796
-0.18383503673558266
-0.19718049895833334
-0.3547585560069908
-0.46568808447423393
-0.5369120936143831
-0.4496875493444021
-0.3056546921403038
-0.22218040247985113
-0.2364765329613556
-0.3844227967500498
-0.3482914371497497
-0.30391700799999993
-0.3480862954536368
-0.4013263760860995
-0.5188306219355053
-0.5289628346077012
-0.3712252525728456
-0.44777384291520345
-0.41932652572294593
-0.47687989654370727
-0.49238863031742913
-0.5314882853670088
-0.493780777727257
-0.5212932004072695
-0.4608941302513791
-0.46098608396217583
-0.4927389388988412
-0.5076734996900186
-0.540147847723352
-0.4643742151317904
-0.43124664151326736
-0.5075250408431492
-0.5939807425094454
-0.5588450878886068
-0.44140377424769267
-0.38966486389749905
-0.5627924397058309
-0.5248598611002746
-0.40025699978027335
-0.3650174181248298
-0.3540314351246136
-0.47998484352138876
-0.4484068431978397
-0.3076986666666666
-0.3533582121916438
-0.28370938191298034
-0.37654539820771943
-0.5208885166167109
-0.44620086025572064
-0.36262212936557076
-0.4387371761166711
-0.339715623056926
-0.3755094483335177
-0.4192554666666671
-0.4583760210787355
-0.44444912854365454
-0.3573403963322608
-0.3271521872287662
-0.45324112027278335
-0.41743342313982024
-0.35239644585738933
-0.4276357394312373
-0.371350761550388
-0.341884
-0.3187253333333332
-0.24185848599830553
-0.31796617597286764
-0.3074609838209464
-0.48115739988427336
-0.5300905392710932
-0.4433163441437982
-0.21057234021534688
-0.19999642187500036
-0.29009981798810824
-0.3561030858778518
-0.5382620330599421
-0.40437899700018054
-0.310791481210958
-0.23247464620789446
-0.16245040885416662
-0.3650482467264797
-0.5267322582779254
-0.5035158817937585
-0.4864905249514368
-0.3008462878232221
-0.2767700037197773
-0.31620381333333364
-0.37452641995388897
-0.3835799152717505
-0.46179109333333385
-0.3694344212893477
-0.421967637016288
-0.5021658152438709
-0.49770081274763184
-0.5548968534821254
-0.5348139992589905
-0.4277160115689453
-0.4891878652993582
-0.4888525680154015
-0.5184752428187641
-0.6338564992322163
-0.5257825456679281
-0.4891701567228554
-0.48575176966381345
-0.5548139538185047
-0.5942063059473377
-0.48450915598830063
-0.49811312289315995
-0.6029084540594668
-0.5781115682028909
-0.4393604648406539
-0.49840806150059164
-0.505661547840463
-0.36987003653369727
-0.41337466352700797
-0.22580111111111065
-0.3555793916738476
-0.41995086043054214
-0.35622113970088337
-0.4369081146625326
-0.39454659433767336
-0.23955114968657346
-0.46098778287395153
-0.422913215988375
-0.3506000186740381
-0.3360615999999999
-0.3336283106013634
-0.44285652221555144
-0.3838594876456292
-0.2970281886478006
-0.3779586202383411
-0.38773789407671977
-0.3740903103123708
-0.39361133387066777
-0.3315078022394489
-0.29601666666666654
-0.34946983384996866
-0.1419390215002649
-0.3642442310566911
-0.3999013019125328
-0.38751344320736275
-0.46369674013318823
-0.5090616526640145
-0.21680591498367185
-0.1444863802083334
-0.3852334784868798
-0.38717941303114617
-0.41723667247445445
-0.3972932590238835
-0.40772291235379154
-0.2862022074120001
-0.17830375974773094
-0.4195505569860069
-0.491291101966478
-0.4320584936434111
-0.48845641120191097
-0.3555359058434362
-0.3327782640712273
-0.4621356000000005
-0.41609756785530644
-0.5303605627884557
-0.5739750656747252
-0.4014185757073616
-0.4768704959034748
-0.4672312025655943
-0.49600000000000033
-0.6948530403588221
-0.5328212161084375
-0.4962166714615303
-0.5030313314384149
-0.5469281120962243
-0.6069587358185856
-0.550012847876968
-0.530787395285976
-0.6084619661458335
-0.6168092942756768
-0.5177321105198964
-0.572698551243078
-0.5428517333333334
-0.47454633535264984
-0.42838625335813174
-0.24269163119101658
-0.23708871500858533
-0.4770603240807117
-0.38938575739891407
-0.3481323737470261
-0.32439841041537504
-0.22607059372381674
-0.3549561603321918
-0.4266580755396685
-0.3228001269916023
-0.241176885306881
-0.2836513157041742
-0.3745630233550923
-0.3666371241750108
-0.2734391680429739
-0.33230219971894376
-0.34455697342597785
-0.37815650781250004
-0.34358189038378045
-0.3107886570287818
-0.2703392498450094
-0.4506505034097954
-0.13433725026110202
-0.2936087576051269
-0.47261116916259677
-0.3565326550990795
-0.3465064688650296
-0.5115230502972742
-0.3321311462369214
-0.15057412049638993
-0.3978584683167056
-0.434935549981401
-0.35220041938951807
-0.402891522361132
-0.4761470909141008
-0.3451206898470913
-0.309634058268431
-0.48087753946282247
-0.41653511962494694
-0.426034
-0.46068311249897437
-0.47572778580333736
-0.4351231784508924
-0.5847189684094505
-0.47396802298273966
-0.6738609014742566
-0.6164059538995659
-0.5182748103231826
-0.5166409637979607
-0.4857677026474052
-0.6798615821773569
-0.5816552204916351
-0.5649348836007312
-0.5652383776041666
-0.5802820768996518
-0.5843539802155123
-0.5933041239925604
-0.5462957599999999
-0.5624535915326118
-0.4673536565406076
-0.38398364848109084
-0.2093348677073408
-0.3967989980470091
-0.38406646506216796
-0.25386431740954557
-0.200173006790123
-0.34835204551531435
-0.3216030510982905
-0.3608382702683521
-0.29442185523480907
-0.154237571605704
-0.33603934859993334
-0.35148212168653087
-0.32522175248393986
-0.2813677358958463
-0.331970948337458
-0.3119428634517363
-0.34192501736111097
-0.2734808225456132
-0.300571054960103
-0.2688962895226287
-0.5211273116346354
-0.28098049460986524
-0.26220345001144446
-0.4203227075209847
-0.3263919226865049
-0.21646185290676398
-0.4612529351100259
-0.4830797821506814
-0.28870659220789646
-0.39282247007911786
-0.3950533876420745
-0.30644209057760247
-0.3618873491901083
-0.5249175551293844
-0.4514492802470808
-0.5018143826510522
-0.49296268273323857
-0.39509247055176694
-0.4507262578223586
-0.548076608806957
-0.5817789039838545
-0.6615388836949783
-0.5525529838373153
-0.7257065037890246
-0.6600195040545566
-0.6049048427444813
-0.5407136435259633
-0.6356297301692296
-0.6318488753495332
-0.588986302822554
-0.5934531388102567
-0.5672391262657577
-0.507457716125708
-0.5033031883309225
-0.32849195053128555
-0.3609208465698044
-0.31969113977227187
-0.21201139387700307
-0.0737568172360169
-0.4631217465883583
-0.39532319087281925
-0.34417535173938174
-0.26815292068886887
-0.16506064000000006
-0.4353973938991129
-0.374624872260581
-0.2927451710211954
-0.2856738468691878
-0.4116887035783264
-0.2763846459930796
-0.2676019787038477
-0.20225911622474824
-0.34180916787759724
-0.27698788282703035
-0.4866612365891478
-0.4633046519645448
-0.3476536737475928
-0.379443206486581
-0.2659909512020382
-0.1770872596277986
-0.42629843252738153
-0.5328977720007247
-0.46574897311844227
-0.4379961726381067
-0.37772247066850784
-0.26638750234573255
-0.3711312501215726
-0.5738942255543319
-0.5422201329349806
-0.5869530179581178
-0.4819023556826672
-0.5633834661961515
-0.6352238455382063
-0.6533324345663695
-0.6249671728656894
-0.6746024284746258
-0.6572392196051683
-0.6166614981495924
-0.6113167315809694
-0.6084785854102087
-0.5456720448792083
-0.4688553757105946
-0.4577880835025278
-0.4181329745609512
-0.2962672441222207
-0.22342616806201573
-0.09616490390576561
-0.47460499913226545
-0.48226413306468346
-0.37088941645091356
-0.2421617486442432
-0.24121906666666695
-0.5445702414891277
-0.4336979318334611
-0.24533699684528446
-0.2412500128803394
-0.5689657314967259
-0.273191555051113
-0.16208416484633312
-0.14484479965369082
-0.44973836854697596
-0.2969364733850127
-0.41691000000000006
-0.5257524958360213
-0.4293181487365636
-0.4028486402019454
-0.2572473345242488
-0.24374698460559244
-0.5072597891995783
-0.5430324774000498
-0.4238205982770466
-0.4130555212616878
-0.2827316674531959
-0.43468281126402003
-0.498884764438649
-0.540264805529683
-0.5809054609375001
-0.6122854891506508
-0.5619120593695085
-0.5664759705517398
-0.5682429501273302
-0.6061422400000002
-0.5605152858028518
-0.3727599999999999
-0.5181577393892329
-0.4450227709930777
-0.3122794872187545
-0.2341119076908473
-0.24880547220500174
-0.4389122628642274
-0.5693865555554164
-0.37959822865534326
-0.19686191462378524
-0.2622954375697458
-0.6006967761934284
-0.5502902575774312
-0.1913617200605012
-0.14458617287026626
-0.6639505321347386
-0.35719701353348454
-0.04858941155089669
-0.15446598155940072
-0.5579707162790705
-0.40301
-0.501026642073284
-0.4579292302743974
-0.34551178865111426
-0.28998466020569036
-0.30406840561959475