<?xml version="1.0" encoding="UTF-8"?>
<VTKFile type="UnstructuredGrid" version="0.1" byte_order="LittleEndian">
<UnstructuredGrid>
<Piece NumberOfPoints="1536" NumberOfCells="6750">
<PointData>
<DataArray type="Float64" Name="f" Format="ascii">
-0.6026801843470342
-0.74752
-0.5822047510640298
-0.7149336592473177
-0.7307907024614049
-0.6481425336582393
-0.5395818895721815
-0.6401072526041667
-0.5351367399901549
-0.5072314180737162
-0.5734789336639803
-0.4770772226279539
-0.5356985867691734
-0.5438064
-0.44197851249302467
-0.5735425647817697
-0.5139307625542467
-0.38980098921793577
-0.5903460528000728
-0.37411472514982513
-0.43081241587006674
-0.5416507649320418
-0.5575264434800582
-0.46852984152604465
-0.4531468800702096
-0.45047590242702823
-0.48022610767488155
-0.39862337405322396
-0.5002870994833647
-0.4323640260462413
-0.40455043122791007
-0.6306856602853675
-0.4359301248137966
-0.43429077020884493
-0.3943948619549495
-0.2941772428041589
-0.417693668060332
-0.2922404029758215
-0.42885651864306834
-0.5702528905621618
-0.44739355349769855
-0.5040415082855444
-0.4831532321973561
-0.5351068846869188
-0.41458528852680115
-0.4471140945631608
-0.3564683344330089
-0.4239101799132052
-0.4047380332036064
-0.4485878368577631
-0.38807984966490855
-0.5611838588225934
-0.37476651246812936
-0.3986369487295605
-0.5034463461039344
-0.34137852081662784
-0.3975702846976423
-0.3013458126348409
-0.38011903992560453
-0.3090322586651621
-0.3178932895468836
-0.37915121099400756
-0.5274867142732554
-0.5561653129051594
-0.4263793684840309
-0.5863222203897805
-0.6203208891175896
-0.4987556901190367
-0.4153255449663133
-0.4913253827427934
-0.4928726830778433
-0.53592510849349
-0.3991548247627848
-0.32983108469633843
-0.3982313689605293
-0.3260723486501902
-0.48218512720383705
-0.3304362312893447
-0.3981922198523533
-0.46674769099366237
-0.44963001134688224
-0.3244209631846731
-0.35332654587134726
-0.38801507200071456
-0.36573648399455244
-0.30441209886534365
-0.36673891822000076
-0.24804046999115445
-0.37726384889439973
-0.34862196612125573
-0.3067503840754148
-0.4704266666666663
-0.6166565339864009
-0.41482242826105614
-0.6760945399305553
-0.503897710963514
-0.6400725848333063
-0.4883010988498296
-0.3864346523927063
-0.595993551353585
-0.607019581636428
-0.4837973561364676
-0.3569451678371652
-0.29629689241712115
-0.48950959999999927
-0.5108796496380458
-0.4227900000000008
-0.3383031081534915
-0.25123198399182206
-0.27547152909871114
-0.5082767720603427
-0.37653822564748735
-0.2587723009308156
-0.2758222360374291
-0.4103488201060366
-0.42133942505218364
-0.34831098146771206
-0.27096567228439566
-0.3469668802629719
-0.3817293749999999
-0.2967670197217381
-0.30298140557607406
-0.37835596714197134
-0.25868785278051754
-0.3825593333333333
-0.3488487394089689
-0.33984997106660836
-0.5358400000000001
-0.6211130518941036
-0.40805564612542194
-0.6864247526041666
-0.43851121857111514
-0.404129291361903
-0.6627780216986981
-0.42698999258762593
-0.6423486268640682
-0.5857224211689127
-0.497908200091784
-0.27653582684956035
-0.37070042740067416
-0.5884903999999999
-0.45951461280922623
-0.43234794570449675
-0.2875877761333144
-0.16275637143471935
-0.36290243675091644
-0.575948119032858
-0.47636789801548635
-0.345712
-0.29393375174443565
-0.18947285886222354
-0.17871874113724606
-0.42928994553564254
-0.2856266010233562
-0.23466437439249974
-0.23832576684201365
-0.44035223629415104
-0.3979643173166347
-0.35265290089370355
-0.2501943596127268
-0.3870108761902618
-0.40840767187500004
-0.29452243358771524
-0.3225116738683252
-0.41126089150650985
-0.2638047401430105
-0.38398792000000004
-0.33293382641041536
-0.4414661459069584
-0.574355974374871
-0.5658335931378122
-0.44923673425627036
-0.6296833380853047
-0.3911102383412542
-0.48897858213778506
-0.6486434667047688
-0.3624539885060083
-0.6402111579493283
-0.5157594237865427
-0.6131731633395328
-0.27642450555006565
-0.5442659555738162
-0.6157025561589053
-0.43023745849693545
-0.4587874140286315
-0.32168783455938654
-0.22759494886822865
-0.4968101911538217
-0.6274687609174118
-0.347721497178994
-0.40303027449257667
-0.2615731212078873
-0.17385745985509615
-0.24494065439140275
-0.5156173673963984
-0.44543165021352565
-0.3568664166150031
-0.35378915245335557
-0.18641423550257094
-0.1961027482649177
-0.3366147104596053
-0.33839090541686406
-0.25977822820240165
-0.301870167496508
-0.4753841227625058
-0.41294421496734485
-0.40603989127768
-0.272610151477578
-0.42613762738145816
-0.4604007639871038
-0.28386069201506064
-0.3290648756599912
-0.47693463487278653
-0.26472338788936783
-0.43260017243232135
-0.3546779938136967
-0.5559102755892058
-0.5905024106220294
-0.5526290190807143
-0.41283998946063205
-0.5161961247393966
-0.5770758878383966
-0.5849811877285177
-0.5497580130461245
-0.3674489799673868
-0.5710534242612113
-0.6269864196422592
-0.5213184847282504
-0.3780433308069309
-0.5253811284876532
-0.6822603773876753
-0.5750463659218519
-0.5888720696757992
-0.407658644203489
-0.39512944771647013
-0.6040716299683065
-0.4878682486050845
-0.30325343087414736
-0.44991760225372696
-0.41674609934213963
-0.2725462507807181
-0.3897760676172766
-0.5634758926047485
-0.3849149305361153
-0.3850801873648358
-0.36349194689308173
-0.28500479192630634
-0.2402694201694561
-0.4299535400893267
-0.4672461705619108
-0.34043464765447423
-0.4253159557781394
-0.30085613377603154
-0.30542381490844694
-0.3464512559832685
-0.4522216215336054
-0.3137428111593303
-0.3692784683715196
-0.5202976946774602
-0.4274456821864418
-0.3887825280421389
-0.27679269136598467
-0.4729971025706858
-0.573665220206535
-0.24785658390784618
-0.3623373965609866
-0.6693891496884737
-0.3001730614604433
-0.6369903037817718
-0.5202992409702771
-0.6369465958535087
-0.567936
-0.5308054758509516
-0.5855857240261728
-0.4847503541666667
-0.4478369002153499
-0.48865627340359574
-0.4291556316885108
-0.6306331765346207
-0.39702861934283945
-0.6247401093718552
-0.3872952
-0.5085194362762612
-0.46587624649496523
-0.6291723241716609
-0.5502085811921428
-0.5001270688158711
-0.5556199817797319
-0.4535959169233699
-0.6263810496495861
-0.5879708789694845
-0.5373546265899897
-0.4765404228784818
-0.4142735713743228
-0.5389829646205028
-0.5982262405866282
-0.3830677402355858
-0.33408104115657083
-0.454735192824076
-0.5174061868215568
-0.40996481239516497
-0.34126711618102923
-0.45830133100498655
-0.4570697201130454
-0.4229919510933085
-0.47402438038592715
-0.42590491011991394
-0.3397091669904253
-0.38806752441665643
-0.526864702861687
-0.2995320000000001
-0.4802817138719922
-0.40302424975660794
-0.4060455452503964
-0.42358961203020845
-0.46708386897273907
-0.31154048545567287
-0.40303717593582516
-0.6396947546452946
-0.46886786521173024
-0.27888490701057617
-0.27406988676603034
-0.6532444089424385
-0.7115009505208335
-0.23540551738670243
-0.5563987918123717
-0.8755228995660259
-0.4654500823385482
-0.8674692000000003
-0.7477824476131432
-0.646637305391944
-0.4922899999999997
-0.45121157335647966
-0.5057325506024304
-0.5985235742552161
-0.37323653211805524
-0.5911118873162278
-0.30757945753254784
-0.5192248294073635
-0.39678267183084487
-0.5291220938210371
-0.4299442597133829
-0.59601741954776
-0.5408948959717619
-0.32598546666666645
-0.48340806630210603
-0.429168842736102
-0.5993137463760049
-0.5041622353901688
-0.5447942819516817
-0.5468477777777787
-0.4797029584654134
-0.48478779756584506
-0.509101016509497
-0.5533981154971331
-0.5887617712057657
-0.5308985426741067
-0.4302636592700522
-0.39551611594931485
-0.48331435237089354
-0.5862533955439809
-0.6102193460401945
-0.39327331592530607
-0.44001513654844054
-0.4994819330019317
-0.6098105696021267
-0.5248824629744427
-0.36672865444926656
-0.3833805212334948
-0.4921114238948483
-0.5135519103437615
-0.5500343930060135
-0.5249290877450435
-0.4568925777777774
-0.388979472790244
-0.6035944832444889
-0.3008033333333335
-0.5879695326151054
-0.4489404564375879
-0.4216397298946071
-0.46096335744299827
-0.35419337052546457
-0.2804513992168151
-0.5354506275381462
-0.7626429835081817
-0.5014336499473
-0.18019155267032216
-0.41390210867934646
-0.8350498683342985
-0.7278444704861108
-0.35795658531992247
-0.7833067598801323
-0.8879857170903076
-0.6906857932611433
-0.911835333333333
-0.8280193903699111
-0.5840341422282843
-0.4101169249845014
-0.41613396539865205
-0.46040538787804314
-0.33602816491010534
-0.4046440551682715
-0.32286958856453785
-0.3681885906178967
-0.4177215744750195
-0.35515458935063376
-0.5612711472868207
-0.5683142316252852
-0.5670889037183346
-0.73411
-0.7270613032426063
-0.7155023382313423
-0.5892318481091142
-0.5344796977318432
-0.3594511094804797
-0.34054206925332986
-0.5929835043063182
-0.49599374115933154
-0.31146977180782237
-0.46247792416836947
-0.2775257635875184
-0.6313785142728677
-0.42709435563412684
-0.42850105314349946
-0.4581320000000006
-0.4853790146415928
-0.527267528670082
-0.6159860439278048
-0.43879901908639424
-0.296131012710968
-0.4288739308020106
-0.5264188681132467
-0.5226068785389887
-0.5538276534324834
-0.5041002834645668
-0.5287853333333338
-0.44866084031813264
-0.39257637027554465
-0.5180187261197399
-0.5760598958333335
-0.5979766155785651
-0.5700344123654169
-0.34595679240906846
-0.3815393303876025
-0.5625888600950604
-0.6438578368055555
-0.6877995285188905
-0.43866512063779156
-0.5432831436247162
-0.5488287658702019
-0.7130856589973753
-0.6174131227526343
-0.45790007999999977
-0.3684199281072989
-0.5101075137261396
-0.6062967468222058
-0.6217887945732413
-0.6004408030973244
-0.5251159466666663
-0.40945672370324443
-0.6211870187889869
-0.35604975201487865
-0.6714232981606698
-0.5470163147788777
-0.4080534680012551
-0.41029476792725755
-0.2371931499095733
-0.3832160167402375
-0.6657322254804329
-0.7189186875051837
-0.4943219925942974
-0.25791224566000215
-0.6088641337053118
-0.7898370090743616
-0.6270417302720525
-0.5679246236673335
-0.8136346898106231
-0.7318541168310241
-0.7818062207523956
-0.7539608209134131
-0.6812983402100661
-0.6270600723289937
-0.445381951163121
-0.3697524009351105
-0.5284724100226516
-0.3597254733552451
-0.3490494920099065
-0.38067034822877527
-0.36721674832928936
-0.46209061638000565
-0.4011282484456838
-0.5150171941630286
-0.6256049088541668
-0.6469330643991745
-0.518386677152635
-0.5560651022938629
-0.40592342095474265
-0.5979517579948527
-0.41568089572920885
-0.29903476378379473
-0.28094880248592485
-0.46283827132507344
-0.6155124050717832
-0.4040264480269222
-0.20531423880967145
-0.3702282050572803
-0.1898784163486458
-0.637177837045252
-0.5422288102889609
-0.39203269165989
-0.42484043535165666
-0.4393792
-0.5016130154771008
-0.5006981925351254
-0.5537379896553075
-0.5959148588964657
-0.32880424424639915
-0.5058469234569075
-0.4727559154866708
-0.4824448813414773
-0.5949087590639959
-0.5171035709095418
-0.6456658307501558
-0.41249546947749766
-0.36617336726983374
-0.5775012179956532
-0.6368460296875003
-0.7431344743786069
-0.5745013720032633
-0.3582095369517741
-0.4503100178687051
-0.6702254913825171
-0.7808470760407881
-0.6998916850500657
-0.48929568505889637
-0.6453768988082943
-0.5526461637527441
-0.7517891387006833
-0.7143796450274155
-0.5638352159999999
-0.4005905524894792
-0.5256950202169228
-0.6525916664938891
-0.6214249987067965
-0.673227912702666
-0.5415563093063299
-0.4009661601983882
-0.5862267817380906
-0.415631360818351
-0.6091439303897116
-0.6284614698950984
-0.4848411941458206
-0.31947041996639763
-0.2828041116318209
-0.5679099398884068
-0.6028645351965872
-0.6117046619845502
-0.4690846054831787
-0.48151994164162915
-0.6494200778122202
-0.6653208097969278
-0.527059766525076
-0.689383173822632
-0.7173229756377353
-0.5692195710072647
-0.6972459562087484
-0.5554050679479231
-0.48870143428759427
-0.5263933870634432
-0.5000532083360697
-0.35503193471331307
-0.2643375414426363
-0.5184639238021006
-0.38069480972836794
-0.3158332998180375
-0.3791958561522892
-0.4213094704919999
-0.3856386813196521
-0.3972085369764719
-0.5503148326100434
-0.43304161862403395
-0.4611262176963322
-0.5268429754564539
-0.4835938347004947
-0.4893930316802591
-0.5072496001239926
-0.22095118412895184
-0.5218166995012354
-0.5277543622144171
-0.34518799372013925
-0.2005643362264933
-0.32726827030378214
-0.30607441176653905
-0.5950811932319655
-0.5816426737911048
-0.3070063364640036
-0.23949571766043332
-0.27739779696319106
-0.559228614430762
-0.6607674051033485
-0.4186295020245658
-0.4372161666492484
-0.409249078735276
-0.5759881078735284
-0.5205148036790993
-0.545432056957558
-0.4500859064035529
-0.6362781598677416
-0.4741863717128354
-0.5631881637961202
-0.42140802865054794
-0.531762166043885
-0.6599242199740499
-0.6726174976496911
-0.6961315006544052
-0.4427973210363157
-0.4393386032926909
-0.6865759557982792
-0.771190763367141
-0.7976475395674463
-0.5334437825997113
-0.4387705608425562
-0.5512146402562513
-0.7655544523109087
-0.8154467105775597
-0.5812632529641832
-0.589282764000827
-0.6718829607402589
-0.565626193925843
-0.652047626497167
-0.7369504055514199
-0.5949599740690222
-0.3923129805210737
-0.5298545764820732
-0.6408104616549847
-0.5376062126811446
-0.6898328660217978
-0.5509967991596058
-0.3244667015355062
-0.5634081258470247
-0.43158644657987194
-0.5369759868138506
-0.5729871714232377
-0.6302851210746021
-0.31584020623617554
-0.4839294346492713
-0.6350150220706755
-0.5356789467407057
-0.5972837018878253
-0.4547738316616681
-0.6377071061516225
-0.6311620244769273
-0.6486550634297535
-0.49024916760575965
-0.693302845395448
-0.6622431254680401
-0.50168561652828
-0.5915557845319357
-0.47071875432940674
-0.43573049617843346
-0.33180272301439695
-0.4958286804310444
-0.4307364187478679
-0.28419991117137217
-0.34747660878552894
-0.4263908883917053
-0.4111762673232249
-0.38743829377824573
-0.3404662344468887
-0.5127028
-0.42814248501756585
-0.40689570361548216
-0.4056319004361247
-0.46756467455841483
-0.449784433192912
-0.43347072267079784
-0.4365978231932823
-0.4329561877119292
-0.4745609243182943
-0.49737521802025175
-0.2255653333333328
-0.357197257406983
-0.5911940007695655
-0.4957655023854623
-0.29198797881706073
-0.38427954158380406
-0.3879536015705726
-0.31149930634261214
-0.47826744257092285
-0.6928591832928229
-0.49416388333014877
-0.3225297639951256
-0.4393235078188858
-0.6849885020151801
-0.5742986438338261
-0.42762792881944384
-0.5039326924560791
-0.4522948812956145
-0.6519334046290556
-0.5658480771472559
-0.6254615632475082
-0.4762587431287452
-0.603738667796378
-0.6075000957283054
-0.6085701230419263
-0.5017568533333326
-0.6386554405026614
-0.713551739618913
-0.7387775976329819
-0.6241459999999998
-0.5667343079148577
-0.5268290553420129
-0.7457290468839802
-0.7721231923453437
-0.6386504623555918
-0.5604770076462084
-0.423736732689694
-0.5650852044271581
-0.7169126368376039
-0.6466946059027783
-0.5134691485714349
-0.6398537798551677
-0.6088554382774437
-0.6001253023859818
-0.5398022256826048
-0.6558101709030795
-0.5362772676338091
-0.28760628222030604
-0.5160545131060478
-0.6102997461175904
-0.5088776608712001
-0.6428996378888958
-0.5953812000000004
-0.27999450142319837
-0.5433391410178731
-0.4923008589147283
-0.5819347007485263
-0.5368143148583738
-0.6998953772542541
-0.45296607687538776
-0.6273581659927024
-0.6455774730521676
-0.6253684678673358
-0.6026815188063478
-0.5332701085709638
-0.6839847762808445
-0.6851942264250078
-0.6598583277256206
-0.5694717588528204
-0.6706578126982671
-0.6589949121312935
-0.5763264946422072
-0.5744132404076691
-0.5398705346149867
-0.4995969567893933
-0.30049666666666675
-0.42182082288952555
-0.5255686492233571
-0.42407367516005934
-0.35243930898437187
-0.4902396590204587
-0.4405772232554925
-0.41155988602675825
-0.4740693284141228
-0.4070876301602866
-0.4369499642548617
-0.5022803905765648
-0.4029986052197448
-0.42973668094500295
-0.44241962426525977
-0.5101648904732379
-0.4004955875083056
-0.39811015814298534
-0.4258714240003722
-0.45588387459087026
-0.4066666666666671
-0.3521064000000001
-0.34644238776255326
-0.5685215163593882
-0.6484083862855795
-0.4610813111898852
-0.3647476083257936
-0.3769348421703121
-0.43538364642569305
-0.4688555092592595
-0.7022143627975587
-0.6639244968504125
-0.4389588642026568
-0.5964845593650984
-0.7243654327191824
-0.5824743249293932
-0.5335994989583331
-0.47879528507346203
-0.4338003455295431
-0.5699268000000001
-0.522890816057501
-0.6118172292594495
-0.590458578301302
-0.6760761777777783
-0.6762087261854636
-0.7296409223668797
-0.6024480000000003
-0.644187941469088
-0.6306465466668887
-0.5792858266476535
-0.6075299999999999
-0.5892723067575946
-0.486157715935303
-0.647030853610758
-0.5463117880208336
-0.5339533489022532
-0.6112147659837934
-0.26705874153247283
-0.4827205340890585
-0.5237002343459394
-0.5248130251736113
-0.5736536227454484
-0.6110666347665762
-0.546749034480749
-0.636306286946496
-0.5403958480494513
-0.6111574147551155
-0.4722246079999999
-0.22765677094851267
-0.5312527229216591
-0.5865971801052453
-0.5943970757397973
-0.6182332877491775
-0.6607296888888894
-0.36779092548047115
-0.5507060270459531
-0.6734299999999999
-0.6331130518773093
-0.6326781489166016
-0.6993344842918284
-0.5970103816215478
-0.6565872624408228
-0.6983887260508138
-0.6981725335780631
-0.6072690436659672
-0.6888289912579825
-0.6829193530636638
-0.7207735391469506
-0.6619312523201676
-0.6509490755208334
-0.6641976589787689
-0.6813071634270913
-0.6136559764414136
-0.6263139936745568
-0.5805028
-0.5404607315561066
-0.41254400000000047
-0.47090758201775534
-0.5569268901964327
-0.5866024895113603
-0.4285873597437267
-0.384743911553485
-0.5093247790865876
-0.5141582141663777
-0.4915967956971888
-0.4950919206517839
-0.41365274523661905
-0.5492063781773094
-0.46308164100556753
-0.40392532002288734
-0.42002388077496516
-0.5544218662946889
-0.3748283287809226
-0.36548513587518056
-0.3737189100378204
-0.46006008289405736
-0.350986
-0.3806226274023556
-0.46190074751482874
-0.6115562286358585
-0.7120372581553256
-0.6412079022632416
-0.3725932470565258
-0.25429143764129686
-0.45753974806043923
-0.5474316875000002
-0.743771478096248
-0.7436534986593865
-0.579820666953691
-0.6696932941131254
-0.7860146751532678
-0.6621043868567894
-0.5380262992310739
-0.3310230346981627
-0.30223493821037245
-0.5677760000000003
-0.35563428159388893
-0.4717172135484362
-0.5692693720727444
-0.7701141600000007
-0.7341686960615387
-0.789056307914859
-0.5068315007150231
-0.5290258809241504
-0.4039017020884989
-0.4971577295141256
-0.6587011235103667
-0.4015836181363515
-0.3980051740759125
-0.4285641348447918
-0.4194292803819443
-0.6060633332133637
-0.6412287725806304
-0.20473420603154976
-0.3872596078280636
-0.4424953320934078
-0.5595577940141295
-0.6784477198848449
-0.5852637210294865
-0.4968547644866516
-0.6518311596940376
-0.6300009449532502
-0.6252211160077796
-0.5096305066666672
-0.3011564708286296
-0.5831889656312638
-0.5523523673888966
-0.6696382473108552
-0.6558016099414042
-0.6895263754770267
-0.5350099284976242
-0.578228305949355
-0.6208490862723312
-0.6982862657953085
-0.6918129015696372
-0.6498285512908076
-0.6313187201040156
-0.6927405716864565
-0.6674774535854803
-0.5784909088671907
-0.6473604969271126
-0.6958909575068248
-0.5820060729880601
-0.6964404752178744
-0.6122373856697046
-0.6200269355147848
-0.4252378452848384
-0.555578072884419
-0.6439790348774816
-0.6462328222291176
-0.5494672097306167
-0.3104189107423961
-0.4184856508847116
-0.5963631330843615
-0.5302028971363127
-0.5053661029513487
-0.43072241227526337
-0.3967289256594892
-0.5376507265913174
-0.3715600678411217
-0.38262419341225135
-0.44473400734045376
-0.4016768752107589
-0.33729336371527774
-0.3596486775373551
-0.41371352466015493
-0.34526126162430243
-0.2744481413515198
-0.4716929754429451
-0.6735119072972626
-0.7772107046455692
-0.7123389999040307
-0.4796658854668234
-0.06198529719156919
-0.33248847557244515
-0.536260530379881
-0.8090131202346033
-0.7808789333333332
-0.6365097604236779
-0.6547708882283557
-0.8604983971729694
-0.6116508897467664
-0.4343750929597093
-0.1606794228462838
-0.3359184170283109
-0.6577678813804501
-0.3412395590097781
-0.32258644374644807
-0.47014397009067094
-0.6500592471171722
-0.7748761568028016
-0.619292856876524
-0.3875466720727427
-0.4108198774027081
-0.31136824047479883
-0.5891085326724178
-0.7037212182269063
-0.293459976438723
-0.3689560396114899
-0.3130755606292397
-0.48485024615805966
-0.7102322157839168
-0.6770882830846164
-0.30017664419990114
-0.3699019294482327
-0.49043625953111086
-0.6264454394093998
-0.7374496107015216
-0.5134760066497825
-0.40452706344286066
-0.5970682221600185
-0.7070833249379157
-0.6230727033952674
-0.5839836674850168
-0.44595653077130754
-0.46290963918778666
-0.6567223458799242
-0.6816719773085711
-0.6588340197974785
-0.6606136933496652
-0.523204785216793
-0.6507029263087284
-0.6320540269730232
-0.6278101055704789
-0.5617379425100867
-0.6105279074861071
-0.5306392482217549
-0.6302207088517708
-0.577238872824964
-0.6752038015525847
-0.3457243641937046
-0.4558051964014476
-0.7351482391635673
-0.6668014678092304
-0.5881611547185667
-0.36017538928705817
-0.28195054741750397
-0.44916998826660276
-0.608942404511197
-0.4785275577662767
-0.43139697516015696
-0.20124507017981544
-0.4660179955336899
-0.39987512096145644
-0.37214585554866714
-0.24569170326783332
-0.4050742712307434
-0.358392953125
-0.3764454694351112
-0.26720275126643905
-0.2854945536267829
-0.10668264000000004
-0.3774334243712716
-0.5985469096519975
-0.8615533443662752
-0.7095341649927662
-0.5384701289001034
-0.10485054790934918
-0.209465013042346
-0.4638383948869756
-0.7520071862296209
-0.8339450219218847
-0.6035190825771918
-0.6488296700033709
-0.7919673484299151
-0.5129052187969679
-0.3955902979166666
-0.20925029524443337
-0.5144886465422375
-0.6852318648481092
-0.4903495819371955
-0.32124000485736187
-0.47852550402975796
-0.4913456253220372
-0.7014625064719732
-0.46484893156967977
-0.42240868799999975
-0.36182920750832204
-0.3930382175103145
-0.6479291508895062
-0.7391853416683888
-0.3801527625542466
-0.37147113821037364
-0.3417284994048009
-0.5379368503112728
-0.766867395254908
-0.6297589367401928
-0.4216527476811614
-0.4379922655701551
-0.5112792996190284
-0.6940704337690122
-0.7029609563855099
-0.3519436732796032
-0.47306806094362336
-0.731408448463014
-0.6303684286629175
-0.6006758694606322
-0.6135854684409152
-0.5595101565163904
-0.6670016721450973
-0.5864909821175174
-0.6955340480400064
-0.5184815396168914
-0.5443403437304467
-0.5470309611202132
-0.5150178326804868
-0.4847163046497211
-0.5970926972513699
-0.2714226666666672
-0.30291051276819453
-0.647488174810253
-0.7147980315719152
-0.5644855203583125
-0.41141376750715886
-0.2858090493903703
-0.23753430422572533
-0.5796294337249601
-0.48087743059777627
-0.4220642666666666
-0.21760395102293859
-0.29350177925229654
-0.4292729417834422
-0.3928952678239305
-0.20955260136391818
-0.3325039701854948
-0.41022615126473533
-0.3719907516650185
-0.1954960384496125
-0.227248
-0.1444573333333341
-0.3426215574431151
-0.47008790222538904
-0.8199279669051571
-0.7168704612027272
-0.5264847976465984
-0.3712422607035175
-0.28123776563126507
-0.49773950260416716
-0.6165981661133414
-0.8161811172318907
-0.5799033230851777
-0.6564747096259509
-0.6470355692553708
-0.5612233490390578
-0.48284826041666706
-0.4238002127631772
-0.5492940414127842
-0.6682634986567472
-0.5343045750909301
-0.4170898265335137
-0.5589652756767934
-0.5182630933333338
-0.6173921630486984
-0.5054481016739
-0.5193579200000008
-0.38100644172612336
-0.44678384623860085
-0.6570076930652795
-0.7083522497846687
-0.5235282074808854
-0.44168360783111477
-0.40569180354236595
-0.5906448372282823
-0.7910123256733965
-0.4618416367017985
-0.5999903879814912
-0.5392142297987766
-0.5445106910129867
-0.8038756143886373
-0.5916989497801692
-0.6624761581303391
-0.706430778589977
-0.5687198953916096
-0.7542172864136155
-0.5719248011385079
-0.5568898821705427
-0.629606367071788
-0.450405558917132
-0.497898704504155
-0.5023805970565922
-0.35610777777777963
-0.32177138485803786
-0.4487886410624013
-0.688329748312393
-0.5422089502842388
-0.4079931721430049
-0.4837698133223125
-0.23220280818503095
-0.4275615232566801
-0.496338467413016
-0.41416552
-0.4875120210787367
-0.24502738567033008
-0.4236145801763638
-0.4533573382626083
-0.4415291981814435
-0.3088068391316839
-0.504992287528199
-0.3982691750263499
-0.3333802484065476
-0.26328333333333365
-0.4243961678032632
-0.44828523336157916
-0.47666125359169476
-0.6378010529602262
-0.6972611009854269
-0.505676797338806
-0.4703546745083183
-0.48886414323245697
-0.6243310879629642
-0.5943621450643771
-0.695683229567678
-0.5892676639949156
-0.6641374661260437
-0.6292692641785483
-0.6979475979885662
-0.5707251620061821
-0.510540499724602
-0.4793436795905857
-0.6574524878552971
-0.4926017583704527
-0.4650384905036559
-0.6034646638078427
-0.654149022222223
-0.6569351140991626
-0.6476465006544064
-0.6265308546228551
-0.43618555580098944
-0.47944098951212183
-0.7167642835499121
-0.5593099999999999
-0.7043840674776778
-0.5714730746568327
-0.4731152142702002
-0.7398473995771419
-0.7064685471304273
-0.7954918511985497
-0.5714271894210653
-0.6784381013990649
-0.7756157812499999
-0.679600660260384
-0.5895781167627908
-0.740864839733777
-0.5291271999999996
-0.5741641389094745
-0.5121100392643105
-0.6162013632293167
-0.5030791525536314
-0.3721898761470925
-0.5508905941765577
-0.5467572167412774
-0.38625621450712966
-0.7630285766585881
-0.45698403364766976
-0.34277409407935533
-0.5253875481755846
-0.4579753924364543
-0.778708411647356
-0.4271569877365114
-0.45141765328165323
-0.6191113085238021
-0.6839511016299537
-0.4242294785992721
-0.6302251145833333
-0.4568162946659227
-0.4976465318599474
-0.35088951229592835
-0.5760618071915683
-0.6087431806829374
-0.5956568094410878
-0.536728642670237
-0.6242672508272809
-0.5108859448321406
-0.3775976498948081
-0.5895680457108122
-0.6815033087635404
-0.6830734254159817
-0.6570012620706757
-0.6268471070772216
-0.7363491677443309
-0.7172474376799616
-0.7448777844896645
-0.5571222788742832
-0.45414527237398694
-0.4949284504890006
-0.5875360000000001
-0.5316966494039578
-0.4571775900837251
-0.5683737083096153
-0.7511307845698146
-0.7427211618125117
-0.7776295227793938
-0.680621259714817
-0.44768079464520133
-0.5809137805321126
-0.688150364436729
-0.8271838683876238
-0.5735789015148449
-0.5735282448798524
-0.7579390963541667
-0.7889935831072722
-0.5736157896021564
-0.7134776955982643
-0.6095630400000001
-0.6543698244570847
-0.5799395151890887
-0.765961128332301
-0.6764735324763831
-0.47625280273370274
-0.4808584504347488
-0.6067733260104923
-0.4011989219411873
-0.8823652181406825
-0.6672394464125925
-0.4260139575906699
-0.5984372780783391
-0.6374147280843137
-0.8390887275186608
-0.5968301064331603
-0.5188803526831213
-0.8075225660260389
-0.6764710838151516
-0.5041013998615385
-0.6750359809027778
-0.4717203264516013
-0.49213787132936443
-0.3996807160570366
-0.4896745178755933
-0.6722020845751137
-0.6574681885507728
-0.5978540329425871
-0.6225571901963214
-0.6006621536617808
-0.3766088508750767
-0.5288893037203232
-0.6097059226978502
-0.7074319404206943
-0.7329642772473655
-0.7167150344506626
-0.8004244046063788
-0.7349581220475422
-0.6522525180143464
-0.46548669454346553
-0.44546042936883906
-0.556286460012399
-0.5701659161116022
-0.4731689979208475
-0.4410999492342191
-0.7387771460219051
-0.7448279844145754
-0.8074951789385091
-0.5679610589212635
-0.4330627604778852
-0.6350730708299422
-0.7543543869140565
-0.47424417429972016
-0.6410017949117819
-0.6433594206049057
-0.6053979114279805
-0.6331627706898653
-0.6826580278294415
-0.7190688571310919
-0.5737295649900936
-0.5511034432963372
-0.7088854898356586
-0.5514919044330981
-0.7779529047939208
-0.677063368683484
-0.4914091277310036
-0.6605492816918731
-0.8417923199999998
-0.704739585118816
-0.5259552652026939
-0.4893610678278079
-0.845207471585038
-0.5374460856499074
-0.40180761680875204
-0.5872858737277855
-0.4203675293982639
-0.41360914496567247
-0.39795884273610244
-0.41904514956072353
-0.5970994825379404
-0.6084796022266427
-0.627782238537561
-0.7112874380519396
-0.737510741861394
-0.5194652066542674
-0.46168805015103226
-0.476234753443699
-0.6331089515582436
-0.7127347379552146
-0.7899313490492217
-0.7229031970258228
-0.680695400051837
-0.49403053519942647
-0.39730749150516803
-0.5155240292827392
-0.5381850170153424
-0.3132251825938799
-0.6236426467727489
-0.7008434149680368
-0.7338436241976126
-0.38266533358966476
-0.49733225127307706
-0.5851865976646471
-0.4849646390989883
-0.5903079820390157
-0.5212907879414309
-0.6308105480864122
-0.5393195190549344
-0.5594412383305921
-0.773315324210163
-0.7580021326720398
-0.5680569544054478
-0.5732661868126027
-0.3862246368745872
-0.5726756859303687
-0.8909397333333331
-0.5242053364443621
-0.4124759148669313
-0.32074866042303624
-0.6932373011612496
-0.4420934134139444
-0.33060025460577
-0.4469757876231854
-0.3968317598707651
-0.4166034525352507
-0.4572823762273897
-0.502936
-0.4744638164660908
-0.5118900087037397
-0.5450632753231984
-0.6817955878170845
-0.8043947446873565
-0.49331250542501076
-0.3650042507285391
-0.5483583839693379
-0.5867529843660985
-0.7113733665290995
-0.6035933664721869
-0.6254497621627523
-0.34246033622040684
-0.43634411458333316
-0.3363448636081836
-0.44510292870284357
-0.6642324559250845
-0.5960640236085687
-0.34914056
-0.5081022765034098
-0.4650066666666665
-0.49806588837998883
-0.4665100042925319
-0.4072674282222503
-0.6654628984601163
-0.8310128910932012
-0.42252118619549517
-0.4909214748187855
-0.3056096551090048
-0.351436493447669
-0.7268691897499497
-0.37812873217606935
-0.4242874542336359
-0.258145817398062
-0.48308204895015644
-0.3903351539574294
-0.43449057147847564
-0.40079690149103203
-0.5058758426589363
-0.5182309870801026
-0.6517
-0.43070083224833083
-0.4216641969557476
-0.4680600583960673
-0.48792723091126255
-0.6868030934232001
-0.34242242621527746
-0.443197525628566
-0.48549248516618176
-0.5381767485396491
-0.527928842185622
-0.4894503059956639
-0.2814225883446993
-0.32697040000000005
-0.5409972158236684
-0.4668281731762758
-0.4200006828956826
-0.43462751347747175
-0.29335556258432055