<?xml version="1.0" encoding="UTF-8"?>
<VTKFile type="UnstructuredGrid" version="0.1" byte_order="LittleEndian">
<UnstructuredGrid>
<Piece NumberOfPoints="1536" NumberOfCells="6750">
<PointData>
<DataArray type="Float64" Name="f" Format="ascii">
-0.6146056351912695
-0.74793
-0.6546259368180997
-0.734549784239568
-0.7143330962861926
-0.6346082409102171
-0.664832178950495
-0.6409416796874999
-0.5494757123480561
-0.6258920689796926
-0.5394919032858029
-0.5231931835511424
-0.569781821456176
-0.4483508
-0.5282582100068198
-0.5812773675153508
-0.45697250464972106
-0.5179381677889662
-0.5620739325854273
-0.44487961045670654
-0.541422096173007
-0.5625226894219909
-0.5871611386650145
-0.5831540599154772
-0.6091523478342821
-0.5295923782917838
-0.5403356871443384
-0.6810373270980707
-0.4672769971068415
-0.464266410839178
-0.7274206254735723
-0.4879238287949477
-0.4254016141517563
-0.7158669928197982
-0.4525132787352763
-0.45643646365159
-0.3880720393947606
-0.34539387166769997
-0.3991309382865449
-0.48368604373057494
-0.4704453683920739
-0.4130730883955556
-0.5045166614285469
-0.40317333539987604
-0.6048440288537377
-0.3429195945066606
-0.6805162825115132
-0.2761669549907006
-0.5425124870963617
-0.43658880399800465
-0.6884504746316581
-0.3006946813821672
-0.5986664512833498
-0.42729273609846435
-0.6695286957776531
-0.663382401524851
-0.3820134494866761
-0.6692520396554426
-0.39667970254184753
-0.4483785095563826
-0.2812267739592969
-0.2948912729902871
-0.3348948545389839
-0.37770118311073525
-0.377681110880068
-0.35172777501431535
-0.3819798124533405
-0.4514169590581076
-0.5343818414734952
-0.3071332052377956
-0.4283341541667695
-0.34133039057656545
-0.5986060475010593
-0.5688962611061981
-0.25651969754081455
-0.5151575729448331
-0.2743862979585559
-0.6980098390721744
-0.47262489733957896
-0.3482421170238949
-0.489745979939788
-0.7342096774491513
-0.4899649274499948
-0.38334499480673495
-0.7361018390059836
-0.5286921878227662
-0.3838114546359293
-0.5785751854877301
-0.3933454723703245
-0.443544020824549
-0.23504081830601228
-0.30869999999999964
-0.40077266083865454
-0.36369506961453796
-0.4427680078124994
-0.2893158840360152
-0.38251589189765395
-0.39076490277334136
-0.5069376158573989
-0.40226597540814174
-0.33789797797198023
-0.4300562156312187
-0.6001138802340725
-0.5013756144644278
-0.3428227999999996
-0.32348970899340485
-0.36381666666666646
-0.5195541351013399
-0.69083458874703
-0.4208435457069199
-0.3490724013225868
-0.4098319665091224
-0.6770167702251816
-0.5663148179264291
-0.3514621793243525
-0.34273947651228603
-0.6849712479980427
-0.5902001991046218
-0.37594311427858673
-0.39825490885416626
-0.6536864920832073
-0.4088307807120953
-0.43801530998140065
-0.4595601915448488
-0.41399346666666664
-0.38324745401942584
-0.30639297421483674
-0.40406200000000003
-0.4777636992993984
-0.4830527132045824
-0.49927457031250005
-0.26448619432927684
-0.5690818980210444
-0.46251982083075033
-0.39612460852042625
-0.3505278315378883
-0.3991938308113099
-0.3940115149163415
-0.5826079409384044
-0.496051814183677
-0.4041860000000001
-0.35129656409090604
-0.3614503508523461
-0.511788368076939
-0.6251853326196603
-0.3956218195796399
-0.40903395660260383
-0.28449459067014854
-0.415378
-0.3525621949666054
-0.5592939203631359
-0.5944121656132763
-0.4115195007465327
-0.6386912646693662
-0.5645989150699008
-0.3588348279417854
-0.2826533732747957
-0.43246690730981463
-0.655156947218715
-0.39430984985935785
-0.3130560700326013
-0.49929958593750007
-0.49535102737721376
-0.3326734383560322
-0.5248634383137013
-0.32028057194685233
-0.4393647200000001
-0.32050296714197146
-0.4572149333498671
-0.5174705744988639
-0.5123395916996507
-0.5914232939687171
-0.48874138417727936
-0.35648567885926724
-0.5988380169127404
-0.4761232625552078
-0.5133054222891561
-0.3539227557955122
-0.49523574234979156
-0.42671678536887797
-0.6080492268775938
-0.39703845501156293
-0.4267037090603871
-0.41870592615554125
-0.38167630514521655
-0.4854180178124103
-0.5653018312207329
-0.3908391589443448
-0.384688213211216
-0.4080472846425695
-0.2917455646946267
-0.3510548811085348
-0.4946169851687045
-0.5158446969897365
-0.40414593486027955
-0.3641372415325261
-0.5025722359991739
-0.20931846184286848
-0.32746045044291877
-0.4942068530743244
-0.5866927444861129
-0.610712229156907
-0.3509990644932215
-0.2181214070865506
-0.36716043445924845
-0.5135085641570151
-0.4983908346783031
-0.28996320084039423
-0.37871811459065546
-0.5344818904923427
-0.36705128097054135
-0.3521486312224357
-0.5320887257000269
-0.26774054870140523
-0.4440253944203348
-0.3084823128026868
-0.532633539696734
-0.6029602572845627
-0.5337950150474903
-0.5099794544327342
-0.5533649007351614
-0.4797579931166371
-0.519695527597254
-0.4764282146358881
-0.6280744449550046
-0.41089498966728605
-0.47020064431157965
-0.42482969229179596
-0.6332276715798186
-0.46825315716085797
-0.4635625872849509
-0.38750585616405003
-0.31723904180770884
-0.5375940751310614
-0.5084060877306557
-0.4183206915500169
-0.49196231349452346
-0.46443488675346095
-0.3640495738579907
-0.36205886794964653
-0.4740612926666435
-0.45450620975408124
-0.33609231730356287
-0.5268344761602827
-0.32367039880800097
-0.2356169716054887
-0.29553509673943945
-0.4568692502996487
-0.49001758168858695
-0.4803967959891183
-0.5762120624095886
-0.2435130126411602
-0.19427049195246282
-0.29355698257441093
-0.5455366251378714
-0.44144513926848966
-0.25629608332300075
-0.2637162430153615
-0.48059144573778617
-0.5502780815114824
-0.39800687903691695
-0.334305519694152
-0.49354870058681216
-0.5039872932098469
-0.35717455769324596
-0.45937735890924064
-0.4862262190846564
-0.350701901094392
-0.4483515273403595
-0.3606161311355206
-0.5663524584888623
-0.646342
-0.52625662000124
-0.48234250232637516
-0.426745328125
-0.546639499121239
-0.4978455902045876
-0.5775721121300249
-0.4308365440972277
-0.41246339925604486
-0.44894676509890935
-0.3960292000000001
-0.5507292906584068
-0.5352168193206454
-0.47543791416959463
-0.4104869548381735
-0.3068426720396777
-0.48923631682966834
-0.537818835604916
-0.4395160535484359
-0.5586553922986841
-0.30135235731101223
-0.3966532260399536
-0.4878289674386929
-0.3924164253601378
-0.4633137345625002
-0.5356933068815871
-0.5622777531192348
-0.37720228921132115
-0.31766973573637114
-0.341846875944362
-0.43501167089894627
-0.3561717522795929
-0.5998127267572321
-0.43726421804096044
-0.2349618559151556
-0.21588491990043923
-0.3361837505820755
-0.4434181760163947
-0.5088922392067888
-0.582658
-0.39404719254924997
-0.20898577479188207
-0.2174383963353312
-0.4172726957628526
-0.34796051620177565
-0.2911026644265345
-0.42857940994970645
-0.4824127732098275
-0.5628771489862981
-0.39755526277544234
-0.4803720905590101
-0.53149792645782
-0.5069653958333333
-0.47361499187219896
-0.5619702468357377
-0.4941290874147552
-0.4955433679742854
-0.5029839999999999
-0.4792254494730316
-0.6118806707173412
-0.7134533333333337
-0.577755452290905
-0.516802373881963
-0.4668968672648462
-0.3948970833333334
-0.37928299318762876
-0.3305739956602602
-0.4785600251128859
-0.5033863535146662
-0.4663351312254597
-0.5018161944737134
-0.44590647988946946
-0.4215554017869796
-0.36465719999999996
-0.4478142732965467
-0.3580466769993804
-0.4494059581566579
-0.49052504485324394
-0.40389548107669415
-0.5542033333333334
-0.3566311283574382
-0.39517342076005474
-0.45146192005369795
-0.3727418833818749
-0.47534698968731287
-0.5854780748088447
-0.3021814655697929
-0.36829385911237017
-0.3829879737166006
-0.3667906061921294
-0.47275531347553584
-0.5653238212382296
-0.596876164014433
-0.4156354696100404
-0.3096775834264358
-0.30978772645863395
-0.40191391300681967
-0.31301615824878143
-0.5589760705974742
-0.4591302306082756
-0.30576011068792314
-0.2159216950474854
-0.3137323555555546
-0.4132977222448781
-0.478204973603429
-0.5502233333333332
-0.43577529209060367
-0.29477654746325394
-0.23130873955776013
-0.3777972370324441
-0.33401669898006553
-0.3732109204582732
-0.5062777874798479
-0.4605218525475591
-0.5108495434724201
-0.4700648146826047
-0.5886641878815406
-0.5421436477243665
-0.45973339409722175
-0.6070570651788751
-0.622412172614959
-0.48099344802645133
-0.6028795287802747
-0.5546905333333335
-0.6003196404215752
-0.6666322625223026
-0.7586901322587309
-0.6898372933087994
-0.6729982452460704
-0.7120638964662119
-0.7052622359502932
-0.6077605651995486
-0.6597623196941514
-0.6262795438124018
-0.5982710325780899
-0.6940911348837207
-0.6362760934613899
-0.6992293728871896
-0.75783
-0.7094758552917105
-0.7670797736995469
-0.5327235209754085
-0.512876378484759
-0.4942517585847617
-0.44009824449826285
-0.4636733212795559
-0.38136319304145866
-0.3747920451104609
-0.38953781608695265
-0.3997198398016115
-0.39883266238989173
-0.44490010885816506
-0.42514006155320505
-0.49550799999999945
-0.34591945460225726
-0.4479137443975863
-0.4170042662990065
-0.44547537601972936
-0.43767719469330235
-0.41797658634334306
-0.4127479107749538
-0.43153794783207694
-0.31919331897468334
-0.3803769435178867
-0.5823586666666669
-0.31647308476502006
-0.3462191975040189
-0.34195590326643094
-0.30978126041666626
-0.5115664089114845
-0.5460324491020445
-0.2544187244518251
-0.357214186220572
-0.3600415379210578
-0.39546851128472205
-0.4269137291862713
-0.5503658422807715
-0.5345732134738582
-0.40483207947497296
-0.28768136335732125
-0.3345235253151469
-0.44965975999999946
-0.3585881401693172
-0.5138145915225162
-0.418971688271423
-0.33237762659340125
-0.2299190359005773
-0.3335221333333323
-0.4949544195081624
-0.4578734461482696
-0.5021618929530898
-0.4115956673627797
-0.34431396041751133
-0.27860958928485496
-0.37548366026038354
-0.38783427117332053
-0.4272840612501081
-0.5015805935674926
-0.4530760067999389
-0.41984558797495425
-0.530831754540668
-0.6016627653647454
-0.531104136542078
-0.360144283458618
-0.6249017782876453
-0.6229841215174868
-0.38970467163687533
-0.6373218800870707
-0.49939661268857266
-0.6015189110665349
-0.5575809264999664
-0.5530176082573507
-0.5794980134228406
-0.5214772620047714
-0.5077506742975172
-0.5255668974642332
-0.42767891310585254
-0.46804568359998205
-0.5122531352295973
-0.4162917413719289
-0.5448979469353662
-0.6025673567708334
-0.6360462481501711
-0.5343777209266019
-0.6089648429427579
-0.42419757284562915
-0.4637135339446707
-0.4289787329846088
-0.452490400472717
-0.35780029085958237
-0.4522996358993326
-0.3680947550371077
-0.39208511126252493
-0.42859105083694976
-0.4195946021740599
-0.4772847218988313
-0.36278788160371733
-0.44167228594250507
-0.34390844765999423
-0.4312167286629461
-0.5611427999999999
-0.2927553058948462
-0.35612792981543423
-0.41059522136284987
-0.3798424874423095
-0.4347997434988838
-0.3360934768463739
-0.33406567528828285
-0.35185564922914536
-0.22777368651435567
-0.47868416291152566
-0.5364098322656191
-0.22640475769601384
-0.3182384376706687
-0.294955864665754
-0.40182778802083335
-0.4786531523192578
-0.4950341763746983
-0.30733991474820144
-0.42391720195632615
-0.42439312622442665
-0.39367199837546707
-0.3814476040819635
-0.5243302436453813
-0.4936450533856857
-0.3964425542823769
-0.29021616476102435
-0.3585152390076811
-0.49823587200000025
-0.520516558213746
-0.496848939173522
-0.43425717312388556
-0.3530703838433496
-0.27694365245354385
-0.37624866232692633
-0.5420180156230626
-0.44642583082353043
-0.4594351332920024
-0.4291198011311454
-0.3778144064801678
-0.3467901860910618
-0.4162868439599278
-0.44818963491802744
-0.4307992284934905
-0.47717117012064153
-0.4292479486741605
-0.3762984951776165
-0.4634280282953637
-0.5378968125232491
-0.4536712929107498
-0.3428897341384776
-0.5360707457035331
-0.522531943040944
-0.35498281090865474
-0.5810049761119703
-0.43135091060136393
-0.5537154314987225
-0.43498008576152086
-0.3847475226630712
-0.41762179474490674
-0.39714630014809105
-0.4228070973921974
-0.28098415598025483
-0.3596883136990971
-0.3479963231704289
-0.39011307095480036
-0.2969848760746025
-0.3871930713315575
-0.46033898016119046
-0.3866255963042198
-0.43004659008280427
-0.5005698818956834
-0.5340052429358718
-0.4263952418162506
-0.4268726441413515
-0.3452128803471792
-0.4268170584701014
-0.30742227348698486
-0.37549338675362637
-0.343632140566232
-0.3754932114073153
-0.4020991656054315
-0.3810827908645357
-0.3158091357770403
-0.3798132357640133
-0.4277308622191281
-0.4179655557601765
-0.3513156201097197
-0.3355007709844082
-0.43654651328829996
-0.3145641753463737
-0.5470572831163462
-0.5736613608183508
-0.42153858268959327
-0.289974553114182
-0.39086673556837676
-0.28881013626782354
-0.38343781281687983
-0.22944069380166618
-0.3123714975986776
-0.29389954348336295
-0.32578895216276577
-0.5534431770919573
-0.496365474960391
-0.2729510544320685
-0.35325734868085684
-0.35727172607336216
-0.5107972948606593
-0.4494968871948331
-0.5011235060963007
-0.4559669070516162
-0.48834707963628793
-0.49824914396884123
-0.4120180371530997
-0.4053712509235476
-0.5374015499070055
-0.4721714812524353
-0.45954640240372696
-0.3617121699629103
-0.41816278610661844
-0.5127336752717504
-0.601350370092041
-0.45400676715055815
-0.46479256074789016
-0.41703484319031153
-0.3686457780783002
-0.4490666588275806
-0.5177267090693548
-0.42902742780771935
-0.49097000619962833
-0.45534997676934624
-0.3987021636615318
-0.384701219359372
-0.46878771050538615
-0.3725906092357419
-0.3772544146311218
-0.43186718748651337
-0.42212296204019206
-0.4487523449156719
-0.3183009389963772
-0.43739967905915944
-0.389540986912514
-0.427806888515943
-0.44883043540236817
-0.39826433635041875
-0.38695089844736424
-0.4921767578373774
-0.3768003454846039
-0.48493302662214266
-0.37808853137700643
-0.3111864097609854
-0.25105350748797256
-0.306886485744962
-0.2543950776640829
-0.43093200016561356
-0.2501635059793754
-0.26995390632378063
-0.2867251351845275
-0.35291920000000004
-0.48649832959997646
-0.32237350698463435
-0.3387862850773207
-0.4228652644102206
-0.5038842420180699
-0.41732103883831156
-0.42422298479530457
-0.4471350210785046
-0.47360644423661574
-0.3866836350485638
-0.3665399999999997
-0.4022031025425375
-0.2714833952019084
-0.30262950952565776
-0.3072942350494774
-0.33638240505902495
-0.49436388200041387
-0.4077694864736394
-0.40580772350322714
-0.2956134713675829
-0.35988003151548037
-0.3769248260427691
-0.43559310489383885
-0.3232620630096672
-0.35831948452315837
-0.43210871788194427
-0.4080385959954301
-0.6252934620962594
-0.5706212359991734
-0.5688846118269647
-0.32578720857954213
-0.3776942118206241
-0.3100155205621001
-0.34835648846316364
-0.28865760155280773
-0.35531237333333293
-0.30522548615595757
-0.4883866023062831
-0.5845851549616672
-0.5158746666666663
-0.41427759702417793
-0.39533471608183546
-0.4613009862503675
-0.5827302693827169
-0.48088601736003395
-0.5911829703106709
-0.515540315714296
-0.4963260747802399
-0.5651266598477166
-0.4826137048611105
-0.5201198171948752
-0.5107396972463738
-0.3986887362639933
-0.5099804632646875
-0.46494283297258593
-0.5017241673899556
-0.5255016758751806
-0.5287937231951407
-0.46388222829477055
-0.4448018087850793
-0.47813113202474783
-0.4219100411021637
-0.4826829866666665
-0.4759291261163722
-0.4822400274472122
-0.610406713178294
-0.44574781608847563
-0.406714785981192
-0.3468470125508026
-0.41544965984707566
-0.2273091797896822
-0.3354929129479982
-0.36998748524888286
-0.4821277345279837
-0.6151055957848239
-0.27312917270004083
-0.33711364680419376
-0.39750926502086587
-0.551179669573643
-0.4044243525802855
-0.3268765421776043
-0.41379479863864493
-0.41700979772971475
-0.29897491013953514
-0.3632696078464547
-0.40151666666666674
-0.3336157036575074
-0.26862477251958167
-0.3088253747536394
-0.25998469221253456
-0.3787985864848109
-0.445733428394296
-0.35285660090849896
-0.37580485252431045
-0.29792621392384633
-0.40161102877219074
-0.4744852149204386
-0.4372467267474361
-0.4218430934107176
-0.3543467189314273
-0.47825580526279593
-0.4528258470599629
-0.420307782159763
-0.39008164385173555
-0.4678364072351426
-0.40413333333333323
-0.4371192
-0.43069400665467944
-0.32238632181734217
-0.37400862663271517
-0.3540536057657133
-0.3156934204823667
-0.586492536061149
-0.46104917123194217
-0.43633115162036984
-0.36526368690211614
-0.4372125710947437
-0.43492151446931443
-0.4893570296150936
-0.3967032612937664
-0.38621961458979115
-0.43845636041666647
-0.5105637807035346
-0.648705152743405
-0.5887823999999998
-0.6486471133358376
-0.40459575118330915
-0.3720465634221946
-0.38204031111111086
-0.3951251619944121
-0.4316324343872698
-0.38310918400000005
-0.360814849223183
-0.611873914193921
-0.5983508858081716
-0.6362700000000006
-0.4463547112213267
-0.40212548030042083
-0.5570581425996024
-0.6173137390624998
-0.6030877748844392
-0.6341743034613081
-0.43728478133488685
-0.4847235283972769
-0.6061812401735893
-0.5762813469328699
-0.6021432511949348
-0.39420496977633285
-0.36491612766576687
-0.4738752534498338
-0.5263242928720419
-0.5360528693945027
-0.5317711999999998
-0.41694133659421134
-0.5722001530790635
-0.4590601018424168
-0.4732305032589264
-0.42718510333354104
-0.4402627111111102
-0.4377863843769374
-0.6170424319516141
-0.7205399999999998
-0.46010185138926835
-0.384704564008427
-0.32488567397881146
-0.30571009919404746
-0.22760228611967948
-0.32194573538588567
-0.3411565956321676
-0.5782198527182133
-0.7214031502263004
-0.3267147861797502
-0.27252546585643594
-0.43351556053243984
-0.6432170442708333
-0.3708454131660606
-0.3032018408444406
-0.49768322070675763
-0.363626146447956
-0.36601559999999994
-0.3879742405455673
-0.42319466666666644
-0.3639001859786763
-0.386732692904247
-0.46268918016924715
-0.3084996329646897
-0.40509885966063713
-0.4003508700144662
-0.3530853016910791
-0.5032249191853632
-0.4112307542452201
-0.3622653098574085
-0.3594148803471791
-0.39911046220795693
-0.48506859314422196
-0.35748252782529893
-0.3576461866088035
-0.41775483783725004
-0.4126908950578416
-0.3803995957591913
-0.41047775069767406
-0.428666
-0.5111566924984504
-0.47514466385599435
-0.34832619357638905
-0.5164790038532695
-0.48640612764952124
-0.3602560826957016
-0.6266899079623008
-0.49593705387052306
-0.45935048958333285
-0.38697849829780323
-0.5576778208544012
-0.5264110450186513
-0.5134876166897142
-0.4452971115795267
-0.393124212027278
-0.42347743391664694
-0.5728743353167833
-0.6365682215333746
-0.658394666666667
-0.6437256730434288
-0.49486256554754116
-0.3606317394971139
-0.3998676000000001
-0.47238264556452797
-0.4494669663153547
-0.36876609470551736
-0.44653848723245676
-0.64450411725773
-0.6565776734246801
-0.7246821857133013
-0.37022861276026653
-0.4093904354771743
-0.5983693908401677
-0.6634129453125
-0.6772584190535974
-0.5150365551592017
-0.34964170173862996
-0.4900932315685053
-0.6273605585864849
-0.5964561446161895
-0.5492464786200079
-0.31795022198326073
-0.4398843803353782
-0.43967227179443386
-0.5142784189587039
-0.49391015537654875
-0.5284601333333332
-0.39214732232197885
-0.6287296794593581
-0.5426505024074934
-0.4371780374088978
-0.42955560835280865
-0.3899587439553624
-0.4181464062822897
-0.6808439515492583
-0.512629656204678
-0.3339882807510357
-0.37346287350288754
-0.30379660639143674
-0.35459596047770253
-0.2932113371352847
-0.3554539444182588
-0.6570538611153086
-0.3590751037214936
-0.25743579314238496
-0.5507813519757416
-0.3445995699961784
-0.4456931287246571
-0.47433295870908326
-0.46409085313770065
-0.3766531029920212
-0.38807258772177694
-0.6144565921080113
-0.40444173889972207
-0.37470792253591045
-0.3848123304084438
-0.2928390113478292
-0.4759505210378359
-0.5085835310387915
-0.35764874147551146
-0.318578351408215
-0.3156404680351183
-0.4794965123443333
-0.3981178598855885
-0.34851365960525366
-0.4019151475100216
-0.43837034288194404
-0.4458900606361213
-0.4362329187496296
-0.49235238065716097
-0.5667562713370531
-0.5014231424853394
-0.3582141727183006
-0.5204955935058032
-0.6106900574255097
-0.45614335237502596
-0.5877332814631127
-0.5030206341236868
-0.45556084551283976
-0.37032351561879645
-0.56982650506303
-0.562381510333762
-0.5172406729069081
-0.43388711322173984
-0.3843740255877613
-0.4126610553295275
-0.5545916133334535
-0.6021914589791272
-0.6722996011572642
-0.6110715349587909
-0.5452924362210586
-0.36427243389997344
-0.3748651348212438
-0.4974712517867647
-0.3806275960044449
-0.3618494704443067
-0.5185995614568402
-0.650147682615909
-0.658399885804382
-0.5811312512915893
-0.3319023509796604
-0.4436802416284358
-0.6282233967990201
-0.6552833111793501
-0.5664568579534494
-0.3765817047414019
-0.36381233683800024
-0.5403973929737552
-0.5960780616407533
-0.5276246614892771
-0.4524664550025504
-0.3600282339598639
-0.47187628022318723
-0.44895115400369007
-0.44842399583933273
-0.4553219789484258
-0.4998474846373219
-0.46732434290861397
-0.5698831216669095
-0.4019631748417119
-0.40111726248035556
-0.4068806048770403
-0.42617473547600354
-0.5636666012732388
-0.2790849062829732
-0.40465374856315095
-0.4026474720943068
-0.44592899788321433
-0.24348836456315728
-0.44750834582867866
-0.33507664620301686
-0.3594388560859691
-0.4088213392163826
-0.5211358500378863
-0.404639519694177
-0.3385256334348847
-0.6169546328755345
-0.4922086302141964
-0.41448122046576774
-0.41968410111073623
-0.29943231859180375
-0.41275430987188577
-0.5643853938681892
-0.3951061953296137
-0.35184918969266654
-0.3287547163600378
-0.4955850284447669
-0.4825537394089681
-0.40885093752077933
-0.4478415610028558
-0.5258863984375
-0.5134535523589256
-0.5027013431889792
-0.5596012016945648
-0.527164
-0.5001448070346828
-0.38814139209761406
-0.45105010420025765
-0.6251841390783226
-0.521728519568092
-0.48075857339670747
-0.4628571515407031
-0.42061117622648975
-0.3811391756278119
-0.5247086986236825
-0.5583436204296642
-0.555435692835913
-0.42532805056105133
-0.3471761521800704
-0.4305046661458332
-0.47360415254598626
-0.527244477397451
-0.47924027464352115
-0.5466367667850888
-0.554231910992734
-0.41370315040297595
-0.3367904542949647
-0.48475677584060245
-0.35189554067657663
-0.39899276800000005
-0.5788798246297903
-0.6436480060960045
-0.4955892686323919
-0.3610724733071567
-0.37680330737755735
-0.5193663338293041
-0.6557649350946396
-0.5505204667940494
-0.4019650187879122
-0.35860026707463527
-0.47566748701706035
-0.5800912261448609
-0.5277698647449101
-0.4391959605499332
-0.3955083270163165
-0.3761754897706137
-0.4235999131437073
-0.3626871406889292
-0.4410341425462186
-0.46444128862988215
-0.5232448002622131
-0.38606160920305715
-0.32930930461748337
-0.45332724520217677
-0.4491119878751724
-0.2803060982316263
-0.36485591164509396
-0.491168489845862
-0.4427868135243716
-0.22442048431494102
-0.2851368342250984
-0.5119273333333333
-0.42569305838557575
-0.33639949489251175
-0.5511036073854624
-0.5527598788079243
-0.45569309525044943
-0.45508839264310846
-0.3275401541939385
-0.3848538825440902
-0.5957960190142427
-0.455512533333333
-0.4252111115933044
-0.3679673342551652
-0.49120382393313183
-0.5728506540607564
-0.497386984294276
-0.49839921271085624
-0.5419526561948382
-0.5572392221575143
-0.5652419018087853
-0.5837859999999999
-0.43039799999999945
-0.46574217066567475
-0.3836479423716029
-0.41957335845665256
-0.5799232425459807
-0.5433319728284349
-0.39589147105125694
-0.4062706084278833
-0.40093279166666673
-0.3493256438687657
-0.5114979088220489
-0.5694505413888268
-0.5992324102630392
-0.3789648787937659
-0.3384544748915062
-0.4765288984375004
-0.39655164726693454
-0.382703781050508
-0.2632266172762958
-0.43073283783554106
-0.5562217423936863
-0.5078961171729705
-0.3342463733333332
-0.4533045025461802
-0.38253575201487916
-0.473995413333334
-0.6410499421807502
-0.5867772692175044
-0.32547273136650534
-0.3113061457364345
-0.44982770820417467
-0.5903484664403075
-0.6358025025578405
-0.43962594477837363
-0.34622693689298445
-0.33481550940276905
-0.5437260117715567
-0.5629754277469293
-0.4790548231755008
-0.3866456225259294
-0.34706675633122286
-0.32060745585455874
-0.42270900644184567
-0.46448156383550326
-0.513935103311221
-0.2769175987389099
-0.46834608846167053
-0.4922405242205083
-0.2667230549287049
-0.5229489250833959
-0.31777663607594214
-0.4815044444444449
-0.44027616784454776
-0.31199605099339744
-0.4759466631083485
-0.5702512075576233
-0.4424348625749123
-0.5017511303988431
-0.3924374704471009
-0.3369546092242998
-0.539416885288968
-0.49487912000000017
-0.5067501177929328
-0.44497694891616507
-0.4545340740063489
-0.5505857357308299
-0.5684166263690849
-0.5534074833418221
-0.5104656920146425
-0.5871389781139563
-0.5885382246339362
-0.5619199999999998
-0.4167249869807809
-0.4679151803859169
-0.3704007897438136
-0.3526480984413239
-0.5308394824359118
-0.5268769113205851
-0.36831948531941133
-0.4015078537290098
-0.47106164351851904
-0.30240229591840523
-0.455667070687854
-0.5784488471391187
-0.5717430456244796
-0.32806492019012173
-0.43721158882689276
-0.5337120384204718
-0.3722185449675847
-0.3013817015004454
-0.2766894583979324
-0.36470190471860436
-0.5636770725173186
-0.6035384023062762
-0.4050386222222222
-0.44182984084674626
-0.4147496783081905
-0.54000517338293
-0.6773966587594628
-0.509232210134971
-0.3190529543714906
-0.3220799999999999
-0.4625789833637552
-0.6140341088581914
-0.5745751159789124
-0.40615971491925085
-0.3734573778080887
-0.5282428060657878
-0.5349016297123016
-0.4682963679318715
-0.40236164496527754
-0.39634210684025567
-0.49340849680206683
-0.5196431692514384
-0.385787333333333
-0.5446085580198353
-0.4122197995453602
-0.5350328208307501
-0.5088034808106888
-0.31330907687780923
-0.36792057586156823
-0.518656144494697
-0.3946795201487911
-0.5515981750570479
-0.5016255165570632
-0.3349001366805408
-0.43402057735206756
-0.46978477991320494
-0.4951978890747028
-0.5226297456243222
-0.45024919613156716
-0.47739573715614286
-0.5011021984708616
-0.5424929797120744
-0.5168472239583332
-0.5303744077954818
-0.5063114861547522
-0.4980250609630093
-0.4761564885306883
-0.5388271140657886
-0.45899469071821036
-0.28505096932202684
-0.4524915212660439
-0.4822953098867406
-0.4296551356660281
-0.4428436975038934
-0.5838261350413879
-0.38304121854848344
-0.3747343930316181
-0.5437190268397532
-0.5219525883566142
-0.37384323088792476
-0.5714915915295401
-0.5751569806689466
-0.4411672060271333
-0.3988044143194856
-0.37933400000000006
-0.41852349338748424
-0.5730443814561993
-0.6534222621595158
-0.48993802394434033
-0.44437233206458077
-0.3968693745503327
-0.5680447072039675
-0.6538954818006976
-0.4727400305377459
-0.4228908947857895
-0.43604665002158155
-0.5953205449514539
-0.5207072911567541
-0.4571587786458335
-0.5103109607876223
-0.5204984209340667
-0.46421389398636076
-0.4481198400000001
-0.5407709814240665
-0.4719203558586485
-0.6202909929737553
-0.5770096931039302
-0.4094748314745218
-0.29248783690551855
-0.43673338660428435
-0.35301381100256524
-0.5999837148288983
-0.5125746446373965
-0.3751914946754234
-0.37672394711316776
-0.4319384048770409
-0.47423722673496366
-0.45792402173912156
-0.40163871842520754
-0.467150110353379
-0.42129663058704797
-0.4142097940629739
-0.4504457161458327
-0.4071764958709964
-0.4241729224530663
-0.44674308121512707
-0.5624663019218853
-0.6000458219028695
-0.5696490144780787
-0.32846777003101907
-0.3829505344575324
-0.4475099839974676
-0.5599894614692307
-0.5304715132663419
-0.620393273799145
-0.5264901756840761
-0.3578223851208928
-0.522005951291986
-0.46955959594670643
-0.4780246563208335
-0.6002051107006422
-0.5912440598495512
-0.5546111767800194
-0.5051155249018401
-0.4940405483907127
-0.5654985433373417
-0.6155230727407003
-0.5040641402769167
-0.43111693291853426
-0.36998193411674896
-0.5285749533126675
-0.5738289428416619
-0.48070826467460576
-0.4081870671290701
-0.5260850845279913
-0.48829224923568043
-0.46864757893050063
-0.4655861824343874
-0.4521051942357933
-0.6951869880140533
-0.6132175522389501
-0.4710639170780557
-0.27820281829241283
-0.41289244222842375
-0.3622578472249711
-0.7050472651180374
-0.5009267023882723
-0.34709272879369646
-0.3243504049468858
-0.46476376
-0.5857578514201948
-0.38974362820216757
-0.2836466370104152
-0.43542657470551743
-0.4793447605762549
-0.3278223929539459
-0.3211444657314492
-0.34644378283301513
-0.447020170946226
-0.4767834573258941
-0.6501047363307491
-0.6616738687486721
-0.5929946420270027
-0.4218194321299061
-0.3402778668182131
-0.5021334057299942
-0.6135812905558997
-0.6152476960014788
-0.5885567361851081
-0.5529920982496078
-0.4155737950358642
-0.4858854957774241
-0.43994118426278556
-0.5091677392648871
-0.49353410749624027
-0.5599947557103259
-0.5661715397213805
-0.5147222449030661
-0.49992045243917776
-0.40798469028035994
-0.4346696924784164
-0.3343526563450138
-0.42295879339328235
-0.4985725500998874
-0.34578670694291086
-0.4465096489357308
-0.36237847987465505
-0.7556052251507327
-0.7211826971422056
-0.49880344635669566
-0.27950444141314335
-0.41381996551937944
-0.468685448233106
-0.8132259968712431
-0.6485585505866122
-0.3567549646634475
-0.25079256002757483
-0.5127872
-0.7285776159681266
-0.49989631972886944
-0.2643055261759955
-0.3392099830077156
-0.5933454880971937
-0.40593928712959326
-0.29760245311127687
-0.4224370526829117
-0.5422769064207411
-0.5888303968992242
-0.659052
-0.7017018173008546
-0.6051338519919033
-0.4850211957572465
-0.3321841673745991
-0.5683565124039014
-0.573291512059024
-0.5150345162413873
-0.4661691859445665
-0.49842647815067326
-0.4506782031103518
-0.5162495474044625
-0.4249336246931381
-0.3489562595094871
-0.4696736145833335
-0.41721453378797274
-0.2951029195658917
-0.4277473121947297
-0.29350028187022664
-0.3743256000000001
-0.2966308257904526
-0.7339700000000003
-0.8147956165917559
-0.6168279858438512
-0.3520780105153545
-0.38035865896574794
-0.5962422566646005
-0.7909756561272988
-0.8038436952478526
-0.5056744510945971
-0.28310550984349653
-0.4705530836123169
-0.7359913143211408
-0.6535195711778156
-0.3823812225514358
-0.32354147395003174
-0.6480515602397187
-0.5644543163457457
-0.3917896415584429
-0.5941741258241723
-0.6483624175710593
-0.71342
-0.625795813958295
-0.5921318987122178
-0.534267119251274
-0.43315918868349407
-0.5582749268493271
-0.4193141623263888
-0.3748504907475752
-0.538657365473581
-0.5673149119017841
-0.6155216092932027