<?xml version="1.0" encoding="UTF-8"?>
<VTKFile type="UnstructuredGrid" version="0.1" byte_order="LittleEndian">
<UnstructuredGrid>
<Piece NumberOfPoints="1536" NumberOfCells="6750">
<PointData>
<DataArray type="Float64" Name="f" Format="ascii">
-0.5872250693368063
-0.37592
-0.4412776032917532
-0.48426875338417374
-0.26980806373612753
-0.35245592812282217
-0.3715558372858421
-0.26137183593749996
-0.310326402252822
-0.3352906710802972
-0.2735371388716677
-0.3109360085063942
-0.34715687676442064
-0.33069839999999995
-0.3583699860127721
-0.4100200655121831
-0.4406302045877247
-0.4516177542008609
-0.656029836344172
-0.7297523703244473
-0.6205302949431354
-0.5031499655815762
-0.47655579458565883
-0.5539168977090967
-0.4154078875927744
-0.5085723276304178
-0.3714293382570712
-0.37691039992527675
-0.46733167675139425
-0.3363377478169452
-0.39100637490108175
-0.42850127799841825
-0.34222056664138895
-0.4590631968496401
-0.3897680235172554
-0.47717044937694303
-0.718217172671067
-0.6568929262244265
-0.6477789271328264
-0.5488583858416141
-0.623158002922434
-0.6487156682561287
-0.43390460710379114
-0.3495847582145072
-0.5626183741234333
-0.6046092614371223
-0.5447718592411251
-0.5053044472411656
-0.3468077164888755
-0.31796724153107325
-0.5363108510193625
-0.39774624567746025
-0.3136754549396643
-0.35981571970981213
-0.5338798882864005
-0.35508450491978416
-0.3932078574000997
-0.45264795772245675
-0.4238140865468072
-0.46557445035858286
-0.6495691272317242
-0.49010844182682306
-0.5158354437925688
-0.6026076761959314
-0.6683350428214951
-0.5321436045132419
-0.390595766417051
-0.5108930990868555
-0.6727151984453511
-0.4805539530437422
-0.3299578048545994
-0.32655250258317864
-0.3996181844304079
-0.6492673408400687
-0.3706077225873106
-0.5825762198888574
-0.2740688489921019
-0.36327542789672657
-0.3024966193103022
-0.3619707202716746
-0.5093563656601593
-0.4160017588934812
-0.30776571424848415
-0.4495780567314404
-0.5154276237124797
-0.3536499922288383
-0.4760548157804687
-0.4146142611017349
-0.46625911981814466
-0.44553662834914776
-0.5363113262172037
-0.39021000000000006
-0.3465747924029187
-0.6282322929039084
-0.31087537760416767
-0.6204197602813702
-0.5167720524372064
-0.6043942906463081
-0.6502177241459678
-0.2713205011365993
-0.43435166601299097
-0.42247970211423147
-0.5173666559972189
-0.58029579079475
-0.22394146666666706
-0.4129989404419206
-0.4302299999999995
-0.28627220866263586
-0.4608517384556366
-0.45363388845817093
-0.19274518495556944
-0.3442797805482018
-0.4654433367187872
-0.22972351344073524
-0.4192655803657714
-0.47440705148076917
-0.5129544349483391
-0.3005204151107828
-0.4189958768408851
-0.5325886197916664
-0.4356562621797843
-0.41577931740062435
-0.5449933384996897
-0.40946980136252203
-0.5386866666666662
-0.5098551973548249
-0.45802930387638613
-0.457492
-0.3348666715853432
-0.5343560379098414
-0.22768794270833329
-0.591938678747037
-0.5368362589079448
-0.18077281401115933
-0.6703139366996305
-0.5935902008268219
-0.5704054945936147
-0.5348159501997998
-0.6175369586331315
-0.46058136359639884
-0.18804384
-0.5880386613484339
-0.48543957986565717
-0.37663816269468947
-0.5064063854295534
-0.3363539917167841
-0.2206782442653441
-0.5749850350660624
-0.4984859999999999
-0.3521142572501787
-0.2814267809409499
-0.4137490826307369
-0.2230188108104594
-0.38143903562185383
-0.3288144301030567
-0.27361309412260343
-0.5455472407888012
-0.5084597178994359
-0.456583099521552
-0.31263473454198176
-0.5111999384996301
-0.5514440104166667
-0.4233177644344384
-0.4923075968338595
-0.593365993800372
-0.4819177747364955
-0.61357312
-0.6083813415995041
-0.4604394832496332
-0.6287017741268864
-0.5177058201039827
-0.45768340854978234
-0.39175368192517945
-0.522608669146518
-0.41716884224482936
-0.3023677008188157
-0.6527182204059181
-0.5663296845018394
-0.35928674852560144
-0.2775666774540201
-0.6317896815434421
-0.5974311003659293
-0.6000389769921927
-0.6614961259213334
-0.5411542100625936
-0.4953386772174257
-0.5101243012223401
-0.2895849996536262
-0.30752635340993034
-0.633774241717817
-0.5997390838529276
-0.38154770689425105
-0.3812530893610988
-0.3663756031686989
-0.20984462008518814
-0.6001149739787516
-0.4980381814424466
-0.4619360585281839
-0.2784261235291596
-0.35441283116740957
-0.2713214901346398
-0.3986606529831231
-0.3312899799439028
-0.375383654436334
-0.5360057861134032
-0.4640672618815662
-0.46150179116728124
-0.39926345389543266
-0.5045846375817403
-0.5122180566211164
-0.48292644237802934
-0.5152111040320743
-0.5836874143448166
-0.5395556847413747
-0.6196006356271956
-0.6582052567170004
-0.5588806127780998
-0.6925786267823932
-0.6771276942283927
-0.4628055906178962
-0.529919039356789
-0.6059237485550338
-0.4695155692744402
-0.4892513012441401
-0.5468522044038638
-0.5189072143004755
-0.3915289431492995
-0.3818976963008884
-0.5181059483334737
-0.5963642405142408
-0.5477748348258435
-0.32852187489720364
-0.33308646576937995
-0.431744190324673
-0.5335304067981183
-0.557630221177332
-0.6386378962595575
-0.6586638334366606
-0.6026105758341272
-0.4688979510661759
-0.4204748694663773
-0.3263388930026867
-0.2705245822978233
-0.622298207157401
-0.6244572380044713
-0.459433115817608
-0.3944763881443603
-0.3404240299648691
-0.21902914352299027
-0.5436630591909549
-0.41529500413308595
-0.48475793586560184
-0.38507644964861676
-0.4144320086764737
-0.3153396966820143
-0.45906528388263745
-0.4414487471378377
-0.4092419459376166
-0.4542596301157698
-0.38823579220802623
-0.5213310122612728
-0.4392008737590411
-0.4300554254678524
-0.4456863545702889
-0.502580556799111
-0.4621197505237474
-0.5143692885263839
-0.5264700431884386
-0.5477536764620794
-0.6086612558910244
-0.6449808130516327
-0.626906
-0.6631577802715604
-0.6949719035988262
-0.6471891510416665
-0.5088033542654593
-0.49029802789832616
-0.5312230955022645
-0.6638929836045108
-0.5506580613763176
-0.5409233792918027
-0.3891828
-0.46118993093985533
-0.5292396647317735
-0.5369399662464699
-0.40417953967699743
-0.24840253564786122
-0.3624059348067287
-0.4557916022559218
-0.5263953352766358
-0.6124373066060474
-0.3019038961208925
-0.29006121260114504
-0.3641359748949657
-0.455069858121621
-0.6165217978036336
-0.6555843539987601
-0.6380333015462003
-0.6618707256071317
-0.5360238335317357
-0.4069888229655803
-0.288853248902666
-0.2117457155435045
-0.5455764669228281
-0.6129824491797305
-0.5235924548185961
-0.5097473719005113
-0.40511654507129674
-0.2276010394028063
-0.44930857388748474
-0.30457400000000007
-0.45777319555210433
-0.4597165672588535
-0.5545188378315072
-0.40328170085003373
-0.5442615933599192
-0.5058279865096095
-0.35908585056216924
-0.3725739058225505
-0.31028660016120035
-0.5407003849061925
-0.3808844163453912
-0.3780319996602863
-0.35930281770833344
-0.45664635511524837
-0.43249368220173784
-0.4156353211407317
-0.5072805632332659
-0.45824584
-0.5115646509609424
-0.6568705499824333
-0.5667533333333331
-0.5984036666873331
-0.6081119320929121
-0.7212783394064384
-0.6130043619791666
-0.6904337498584545
-0.5528519032858029
-0.6597341697182668
-0.5280344932473512
-0.5290918594750983
-0.5244238090453597
-0.5774056155626899
-0.565896239543033
-0.37881720000000024
-0.3944267500394733
-0.19728182475718128
-0.419955609271731
-0.39765218030825517
-0.4581164276120491
-0.615155555555555
-0.25080577019722583
-0.2957809817312
-0.2671869092736487
-0.3711295589884919
-0.5724619718794988
-0.6971600276916722
-0.21101300883868254
-0.1982801381849165
-0.3422640736308003
-0.5057317925347219
-0.7217460761240315
-0.6433774957423201
-0.6215087495615698
-0.6960297131584956
-0.6178434093072996
-0.5080335699524691
-0.3366629328373636
-0.15510550341845014
-0.38879532452931637
-0.5893233054498167
-0.5415618485032
-0.5797109169319032
-0.5424572888888886
-0.3213739411123746
-0.31560503682639207
-0.2961966666666669
-0.4454271499741313
-0.41790728721927556
-0.6101706529282911
-0.5094502080319625
-0.5706096130840209
-0.43313881723861697
-0.35282276950742114
-0.2811777172104923
-0.30385174365015416
-0.501862617833943
-0.3843135075637208
-0.34716659396782484
-0.3126087803819444
-0.4696171183259
-0.4520141738218944
-0.36493493800371984
-0.5157364092535041
-0.4419844
-0.5028094296342221
-0.6588349871521969
-0.5741856953916096
-0.5841938907820986
-0.6662683358544882
-0.5748872070675759
-0.5498606231959952
-0.6074703474625199
-0.4922105032031406
-0.45907098908737526
-0.4737011994156957
-0.3765849602067189
-0.34059014476244
-0.38172899508295816
-0.32952
-0.2515643145886291
-0.413164145328291
-0.646358655094028
-0.6395038052979022
-0.5906721553475023
-0.5910869094229733
-0.7002062446372683
-0.5784651408446012
-0.5454413994849915
-0.4957143991969311
-0.4026578130192187
-0.6153634929118666
-0.6239022698900917
-0.5245781782559397
-0.5542979999999995
-0.47045323413981005
-0.46920714680118697
-0.4604883181392487
-0.36024962830512314
-0.2569015943780297
-0.22960200919881665
-0.3158393550237657
-0.26014583287031723
-0.3610672994965547
-0.462281972306611
-0.7212286666666667
-0.21704079614933822
-0.14844333144601493
-0.2766358887608353
-0.41221426475694395
-0.7085762797858931
-0.6946495902441763
-0.1288309377606955
-0.23773951869629242
-0.44144259061789576
-0.6179618324652781
-0.7526424285503328
-0.6567735816883947
-0.5204707214300469
-0.7184346024744884
-0.6139814662783659
-0.5788039152717507
-0.47346295999999927
-0.23061296772316853
-0.30866859108162675
-0.4879210248196006
-0.5644791449435792
-0.49627452527778
-0.5816029866666669
-0.4601124281876415
-0.26755661916193646
-0.35886865054763334
-0.40465484522779244
-0.39827452349086917
-0.49247828576155445
-0.5245990175656131
-0.5202254996255259
-0.3938109630154199
-0.39106432836415
-0.24084239233587015
-0.36599671529967104
-0.5014026036025925
-0.4773251418722874
-0.3116624836154412
-0.3705773895395263
-0.5445169370954915
-0.43115911847948135
-0.4464991643486916
-0.49001382513504144
-0.5356788320727414
-0.5812641239800044
-0.6689954253633675
-0.5854780896148187
-0.5263823309551947
-0.6867034713127452
-0.5063511825294819
-0.43773566395486707
-0.6113500026978443
-0.37922470548405335
-0.3482763326119729
-0.4821906735995987
-0.2951450925483838
-0.2629567317708333
-0.3012056744322865
-0.4311800744967809
-0.449460182889027
-0.5604707067575945
-0.6323771969996345
-0.5210605238945353
-0.4928247895681747
-0.5398250843133606
-0.6294516628310253
-0.5325971691217627
-0.48218620953525876
-0.41392236676999383
-0.38752301590181104
-0.3339462889268802
-0.4509461300348813
-0.514877139224433
-0.5771179251620174
-0.4790249097609698
-0.6337175999999999
-0.4267994073574625
-0.45400788265806985
-0.3269625261681571
-0.36552238601639503
-0.29494188657412834
-0.2865602777763901
-0.20453421939243643
-0.26850547166381133
-0.3957954236654652
-0.5880788933969865
-0.7192324429978642
-0.1770639323752415
-0.1704024432140345
-0.3957737734893059
-0.5317073020833333
-0.7399194274198008
-0.6674542416832548
-0.19132034666695077
-0.3911873298753175
-0.5093071182889025
-0.6152254114541176
-0.7295557392371186
-0.6244454736515809
-0.4036421085623741
-0.6589338151441507
-0.581999602784768
-0.4918604232887098
-0.5069550720000001
-0.3834839315974365
-0.3408564853190584
-0.3813683075699679
-0.5467813859752794
-0.4102209984828578
-0.45113704824688255
-0.47873563818970855
-0.3492777989579067
-0.3991945257284563
-0.3418563532275727
-0.4388802318055523
-0.3843874951348016
-0.4426931073669919
-0.48440624658975945
-0.47248844483570984
-0.3625445431242056
-0.33815448826249656
-0.4404127793002764
-0.5620204528084544
-0.4544135110146718
-0.37896611295775373
-0.493918940255121
-0.49516767175589577
-0.44460878233477014
-0.5898591200996323
-0.4674718844225761
-0.6260560080595166
-0.5878393824355659
-0.5306165592064476
-0.5773243432970391
-0.46719820508612014
-0.42083837381348316
-0.5470811568443111
-0.47858736695392595
-0.37019334046259195
-0.35686571860705435
-0.4922955104392433
-0.347780754916779
-0.29883926083676854
-0.2884600185988841
-0.3984199789005732
-0.3089975722352254
-0.2834895520776287
-0.34282902620855055
-0.37491803442860094
-0.3605751208927464
-0.4561528286836119
-0.5336961515944538
-0.49410113762944396
-0.47098929756925934
-0.3884467686712129
-0.49364598470758386
-0.5679229475560562
-0.4582147745732908
-0.49281429889674594
-0.41439152690666897
-0.3489478736922199
-0.3663414279588007
-0.45529876175559275
-0.38313797085688006
-0.5106057224116557
-0.5251765042713347
-0.5328604595990906
-0.6733682758834468
-0.48801690560158856
-0.47402933207394343
-0.3395481023239704
-0.32777968142178177
-0.3917893546690729
-0.30082248184344385
-0.21831652276916758
-0.38097516321597985
-0.4607323763351801
-0.6598151521268556
-0.6323544881862652
-0.2280320338682391
-0.31931612775366763
-0.4602044926712043
-0.5654322886664128
-0.6636860294247633
-0.6228357077908654
-0.32910526673155355
-0.46386669194461655
-0.4583547292976427
-0.5331140456662881
-0.6535291073789993
-0.5226537290762551
-0.40978193657042034
-0.5235866857842683
-0.5355383272752411
-0.3802560365153909
-0.4116424129200242
-0.4490595135271424
-0.42473173377843837
-0.4147634890550071
-0.44964677398023595
-0.420452913465671
-0.3409409410070952
-0.40089368911318896
-0.4966057290135759
-0.35252365881380404
-0.3827392556557314
-0.4086244307504494
-0.4417246831163462
-0.4064536362291707
-0.5466006996034877
-0.4729230933663975
-0.35945955184189127
-0.5332544165132999
-0.40287881691834837
-0.5271980823393615
-0.3751746445850246
-0.5607282921956908
-0.4854043026400616
-0.3704726492647646
-0.5438330273211366
-0.5692310509215072
-0.4787027624502312
-0.5535521727629668
-0.4760939285399018
-0.36319545705035416
-0.46777858476792916
-0.44473097838139236
-0.41165315645391937
-0.36611074914728686
-0.3663598891758298
-0.39841016826039133
-0.3466524242647174
-0.35649558295558487
-0.3457112
-0.33477347304596666
-0.32350569030837023
-0.3047346537179721
-0.3133684999540863
-0.2573420821327069
-0.31516386525925877
-0.3229974489714643
-0.32333640219468907
-0.252188382816617
-0.29847102293862376
-0.45324866666666624
-0.42565878179075284
-0.42487693838965884
-0.5077305108126454
-0.40842908836222763
-0.3775375294485533
-0.5588155676792724
-0.5506674646909294
-0.4304170830427252
-0.45656162792477534
-0.4950628349599953
-0.40181371430069923
-0.4545683685082447
-0.45381572285136157
-0.3658465165591824
-0.5346005095486107
-0.5271757567164458
-0.6372652846292064
-0.610046109320108
-0.571770327189681
-0.4655049590011924
-0.42232298842736077
-0.2875407643452504
-0.41364328893596447
-0.2837839979204748
-0.32023802666666606
-0.43273115215833274
-0.495343904411147
-0.6185592230252728
-0.5337826666666672
-0.32300605538334326
-0.4306681051456915
-0.45232528158824953
-0.523066533186577
-0.5410628783350903
-0.5523224839842938
-0.4287985061230777
-0.4547535979227552
-0.4112210168332264
-0.4358809496527782
-0.5418353527229841
-0.51262434994357
-0.5590198630425424
-0.5095684949794569
-0.45026434249052033
-0.36123753399462716
-0.37871013367224626
-0.4545441261588569
-0.4702601136350773
-0.5876548258568715
-0.43517619092051407
-0.4168164023565417
-0.4068953066666665
-0.40954622425703396
-0.532749775217937
-0.2817327359173129
-0.5433820409683078
-0.3736268236976807
-0.4964796599297377
-0.5150184286009506
-0.5767039750629497
-0.38757085881764836
-0.47306379133441884
-0.566228827152439
-0.2829758361281297
-0.3971382737112528
-0.40857541828306077
-0.572677076765407
-0.34875612832149067
-0.3295436441203611
-0.5103158721739954
-0.40733065974422994
-0.4149394566382671
-0.4165468079379852
-0.4290324275577472
-0.36514888888888813
-0.3212291559633779
-0.42106241420049534
-0.4438594265901034
-0.4077410219751474
-0.43814433353998755
-0.33970084246056315
-0.26653824943387955
-0.3968508600346368
-0.3886306871855805
-0.37593287406948156
-0.2686708731142797
-0.2514587422497601
-0.3764094312386839
-0.3569657203855016
-0.17359149204381039
-0.2908810325522871
-0.37080043076920594
-0.3417532784707192
-0.20492364892334147
-0.3478866666666663
-0.566772
-0.44285428586190406
-0.3360507478451966
-0.5180538154534718
-0.47760026525080884
-0.4435955005201982
-0.6582044335912521
-0.5624321092938184
-0.4814336009837956
-0.3619708772918562
-0.5103013797651136
-0.49263742397427457
-0.4460801843049573
-0.3320805501424939
-0.41157550733622617
-0.49078754947916664
-0.5525718400437961
-0.6569911743292102
-0.4983415999999999
-0.5924687902162394
-0.4409604318568244
-0.4205987335399877
-0.2846545777777774
-0.3179214868700372
-0.25796267961700053
-0.3844570239999998
-0.4241589812068885
-0.5111648149891331
-0.4911691126046253
-0.4806300000000005
-0.39064097110973345
-0.4777195980937759
-0.47835873427655845
-0.41974469947916687
-0.4408076304241499
-0.5739168407729932
-0.5023515102681244
-0.49306141838664835
-0.40284177619342837
-0.3536420298032412
-0.5673590666057274
-0.6429154662712178
-0.7018903409081155
-0.6352790476859392
-0.4779760480402669
-0.36764562478473545
-0.4730012479999998
-0.506375350760747
-0.4575537322042169
-0.6843716927216223
-0.5316213449447621
-0.42996360222519914
-0.48942408888888894
-0.5520567072535647
-0.43645000112250254
-0.32165
-0.5897302168759446
-0.42525245223126906
-0.46698802642204035
-0.601266159674864
-0.49735111600063403
-0.3738159023249182
-0.49579123631712824
-0.423847787300284
-0.24668252154504305
-0.3133308773822584
-0.4085847803855292
-0.4038518831061684
-0.2622760286458334
-0.30575800510983836
-0.36846142629577666
-0.2858366986980781
-0.3573572977495946
-0.33753799999999995
-0.4402322628642281
-0.49583133333333307
-0.3241938612770952
-0.3313307143912343
-0.5048272829173471
-0.46608508451494396
-0.45901474821165417
-0.4249112316594343
-0.21010655472851136
-0.3877907885819852
-0.44416402178350495
-0.4209313287042776
-0.3061234637321761
-0.18372002465191492
-0.42062676924900444
-0.40790925072133616
-0.2152684412068607
-0.27697020280064266
-0.43974919545026986
-0.40985543534420366
-0.2705570755555552
-0.416106
-0.6312071233725974
-0.4954296016698693
-0.3682673612402703
-0.41494168720734
-0.5009496078116852
-0.5340246559006437
-0.6770494462994864
-0.543738438532822
-0.46796571874999954
-0.34488509867687944
-0.37932015070556413
-0.47581197793246793
-0.3226183699314786
-0.2223875949025287
-0.38397569001859844
-0.4043556070358781
-0.5766393321716218
-0.5742517206034311
-0.43651066666666666
-0.5059447391577016
-0.47171372355296576
-0.3478106136175041
-0.2696010133333327
-0.18009373210688673
-0.24093226410415283
-0.3908375604133087
-0.46858059830941395
-0.4503185825355082
-0.37664894190588355
-0.5414291038093266
-0.45127680141652365
-0.5284152489484443
-0.49328534590196155
-0.31180403211805524
-0.5047865051723802
-0.668743829147271
-0.5628177377646914
-0.5722148756437285
-0.37948896342219457
-0.4151654247624191
-0.6681013875252888
-0.7816114835377396
-0.716538576748137
-0.7157260861640716
-0.572450793273685
-0.41157369967745433
-0.5255113866666666
-0.6028829711479639
-0.5245224831049673
-0.6329279405248566
-0.5714860364268296
-0.49011790933224825
-0.48661815358545174
-0.62250711138665
-0.40859787156948174
-0.5079871097470482
-0.4541948164441916
-0.45902781516263275
-0.5530939998832424
-0.408212030092523
-0.37507364917158276
-0.40884209312130326
-0.35222549888679705
-0.27068559087953853
-0.3444027460566408
-0.3160381409430028
-0.29501769315393783
-0.32161246133878946
-0.38135573051732574
-0.5218325235930281
-0.3693713032590587
-0.29036588103602673
-0.4767935936602134
-0.472747960770971
-0.5070862501455738
-0.40907061192937927
-0.22205321664888203
-0.33035190981550416
-0.4632287479120763
-0.44148098561686305
-0.31407950129636136
-0.20241219531219115
-0.41338414834777804
-0.4618623140813041
-0.28610083402794645
-0.3182845558144943
-0.4926681119791665
-0.4481807438774877
-0.3417995418314694
-0.4323666501343252
-0.5837903070882418
-0.45486641970879466
-0.38245696152140657
-0.3358767566736968
-0.4280818135551361
-0.5224311539504269
-0.5997540276916721
-0.5467727395788894
-0.3634065249358327
-0.3272373242286309
-0.23951305980574555
-0.3767870505825552
-0.1743419766410219
-0.1708128532176074
-0.28613611122887234
-0.43470393242270866
-0.5384436061413743
-0.4846209044568435
-0.49168717462285544
-0.3993080211403511
-0.4918643597837337
-0.39016461133053393
-0.2545102025074047
-0.10434432569788787
-0.2985188419543691
-0.4463549690597226
-0.5367705772763963
-0.36202753767762963
-0.42330847698170065
-0.6338324364538132
-0.5241845181583501
-0.5966302738913
-0.46526472941166847
-0.33322574633565333
-0.6184738530120568
-0.7499849391332932
-0.608418851436593
-0.5844445786870568
-0.36929663267940627
-0.5334409475246159
-0.6915941775538994
-0.7844272413023389
-0.7132551642901425
-0.6907644390952092
-0.5773296561950542
-0.48849474220072336
-0.46883574974994896
-0.6075521115122908
-0.6036332895182462
-0.5548848747275148
-0.4905503681968854
-0.48522128249638347
-0.5414445466826614
-0.513557111315074
-0.4379253250728538
-0.418074315425893
-0.47346205891773346
-0.30977173956092
-0.3412124790267581
-0.4432873829373394
-0.25132106459396286
-0.3969036330233516
-0.36673029674937835
-0.4310146232003857
-0.31694410984271126
-0.28351297656330726
-0.41186274167947606
-0.44410292218829645
-0.4976562854254163
-0.31922665560261404
-0.22914195362643222
-0.32223903612601856
-0.46436229355810005
-0.45759597809464775
-0.27648110160208966
-0.2827153592867833
-0.444158366492786
-0.5150594626989043
-0.30319801457499823
-0.3843624748987267
-0.5297240677083332
-0.4345459610193468
-0.34836067910255436
-0.37463724323207326
-0.48769200000000007
-0.43736031515758
-0.3059862227879915
-0.30282365980665465
-0.34720780515258043
-0.46093914748079684
-0.4882165953709443
-0.5507700615041228
-0.38582091013221104
-0.27729548902816453
-0.17982828007439566
-0.2852194249021864
-0.10377820541404718
-0.2046745715836765
-0.34338107407402335
-0.5470447708333329
-0.4575544790773449
-0.49688505415695544
-0.6037461010539368
-0.4310191653202884
-0.48654349555110227
-0.5544794784872907
-0.3643046454777146
-0.2060851047941372
-0.4435274846285129
-0.5833889760000001
-0.5917792398863996
-0.38137312218483177
-0.5637600721552295
-0.6715541024316324
-0.6026215392436454
-0.6434426714885997
-0.4439060339083944
-0.4577055677139839
-0.6094658975404581
-0.7139623627242689
-0.5923394513376172
-0.5100086304432279
-0.4179228802076587
-0.5130871894127184
-0.6231942248602017
-0.6845099008059518
-0.6439737129965828
-0.512301025392361
-0.4510515469301845
-0.4351694909361436
-0.5086207285406975
-0.6015234510011431
-0.41218300083043263
-0.40647735793896783
-0.46781606567377815
-0.5272900944347864
-0.30171051685594635
-0.35117943894391246
-0.20590114160100073
-0.4246196243025419
-0.33044330239733044
-0.3621606666666662
-0.3080629847168926
-0.2728017627440676
-0.3929803508333503
-0.4500158985977601
-0.4664224948038559
-0.2991744389336643
-0.27925396348148374
-0.3766954076659792
-0.5207485937814039
-0.5204762666666661
-0.2610419150650961
-0.37970275187159
-0.5167511007824311
-0.5935484091754494
-0.274500617276297
-0.45528833579853983
-0.5368821240264647
-0.40518153479961655
-0.31478133354005156
-0.301338
-0.3806266666666662
-0.48168208283216524
-0.34310523185177577
-0.2972191185055824
-0.3205573254556737
-0.4459945008791077
-0.46727039613453597
-0.5093243362060053
-0.5261799045138886
-0.3694769348469091
-0.2422073427467372
-0.2515914277549887
-0.23370882340234647
-0.385064345305323
-0.5388174348005782
-0.6352830000000007
-0.48776655616918047
-0.6120839189454689
-0.6550111841289522
-0.5822853695673033
-0.5578294161045113
-0.7235371740028941
-0.5584937066666668
-0.440027775052332
-0.581341970655094
-0.7170096266666675
-0.6461254045620265
-0.513651733830823
-0.5960728450514913
-0.5960394129198976
-0.6281334598057452
-0.6341634884908859
-0.4881222702747737
-0.47847464079344465
-0.4712911063728294
-0.5407444492663767
-0.5237168621804235
-0.4811028183836208
-0.3953028294166388
-0.352742950719568
-0.5178971466655014
-0.49186843502176214
-0.2789891258144302
-0.37762851150237603
-0.47870079299621887
-0.4222010237995753
-0.22641668061326561
-0.40067558384071206
-0.31232258243438654
-0.20431780984453965
-0.23076164418260514
-0.31802888888888864
-0.3854157806758494
-0.36041760747346613
-0.42407159310526477
-0.5086613256847538
-0.5144422359991729
-0.31344799407591123
-0.3605681769543115
-0.49844372751815075
-0.5954774083740833
-0.6164448
-0.25095299648687736
-0.44321188106242987
-0.6109001309329597
-0.6319045077208366
-0.22615938554797813
-0.49269367756128984
-0.5208641694301297
-0.37405142873085756
-0.289714902325581
-0.3080500000000002
-0.3719915974374866
-0.5110525623273469
-0.46632223736180006
-0.42170016648413605
-0.37892912824138064
-0.48384250698180536
-0.5722476256170966
-0.5619502221043541
-0.6580148379629631
-0.5267306287384982
-0.45110560546548534
-0.3590924067574824
-0.49612348107020426
-0.5691068758007849
-0.7316070620651657
-0.7552507409744819
-0.6261075920376874
-0.6970008836424801
-0.5928287917312665
-0.6569992029524552
-0.6871465103543349
-0.8411195834176665
-0.7184080444444448
-0.5963237680214241
-0.6371544217124753
-0.7592330933994625
-0.6980428401632183
-0.5703681119315677
-0.4582561166954873
-0.4297566666666669
-0.5845482629672354
-0.6223423468103557
-0.49683346050078875
-0.3073262634719542
-0.33535342488685044
-0.5240978548254686
-0.4740302023308849
-0.22334674380029276
-0.2626660850694453
-0.2147757873527598
-0.22997326327235226
-0.49819408557955663
-0.17998053333333375
-0.29764895373180805
-0.17849384583591643
-0.3510988165598948
-0.4629176866727029
-0.4870924264827446
-0.544128594147247
-0.5773654364194147
-0.6112054048357098
-0.37436364162699315
-0.41925671663570446
-0.6169209173347956
-0.6594798648222523
-0.6576438579871874
-0.31562634927556266
-0.4435276511673703
-0.6665718801343132
-0.594302881714006
-0.2920267290987607
-0.4657552755479147
-0.4733482161458334
-0.3681014658895984
-0.3653477037047705
-0.38290343046083847
-0.5076418642281464
-0.6141098994376084
-0.578607024528356
-0.5747235940094986
-0.5384103673149987
-0.5686866591384493
-0.657942840479775
-0.7133464124852877
-0.8192136480613237
-0.6570766909727795
-0.6264412215995043
-0.5494102703588679
-0.6404231734047103
-0.6846809169112084
-0.8834045910056229
-0.8777649869630221
-0.6724330040211854
-0.6967607494297255
-0.486478
-0.5851024942505716
-0.6971827712621136
-0.8683247296935274
-0.7919674176758279
-0.6471123689031921
-0.6219776085881915
-0.7051801159330435
-0.6742077907918751
-0.44663835616578845
-0.3309693604067209
-0.5347131878102936
-0.6050092872788215
-0.3601136779752858
-0.19226488541666667
-0.5512103989469156
-0.3651710789723605
-0.1359091258524489
-0.1618936
-0.43744977658342554
-0.23520757222566646
-0.49706870634428607
-0.581278280299776
-0.5728869681975772
-0.674319369248897
-0.6236213256836348
-0.6811994680535951
-0.505552953494334
-0.49821475603459336
-0.6556350771092192
-0.6841453169206275
-0.6007348665426747
-0.49143269033876563
-0.45612277734111656
-0.639218715201515
-0.5086084128952263
-0.5130744801271111
-0.4506821067144154
-0.42433603298611094
-0.40134714558655377
-0.5342251612037854
-0.44779519218846864
-0.5908318131845425
-0.7679876119763046
-0.7255791527513384
-0.6699718437308104
-0.6624423336970451
-0.620565033310169
-0.687630817878318
-0.7154463784305242
-0.9401635921570403
-0.790350197069747
-0.7121806491010539
-0.6215194944981661
-0.6807277489431233
-0.7657402973098174
-0.9033218808843771
-0.8299047606036773
-0.6230022030852296
-0.6569628538954336
-0.5211966537820708
-0.5744923472693926
-0.7935405616078905
-0.7074338149617688
-0.6688961550433649
-0.5164089819035943
-0.6249816399834672
-0.5321935380838739
-0.36848988354440165
-0.478620095808403
-0.491403206066421
-0.27524948127088505
-0.4747931322876336
-0.2716484301715237
-0.33879429869766853
-0.5627670841082867
-0.6994330572674694
-0.6340638261109374
-0.7411215696127228
-0.6183251178418611
-0.6412296413895064
-0.5858241126336649
-0.6010000739950739
-0.6128345679471074
-0.686824317717747
-0.5025247200000001
-0.6384580897228006
-0.5573577846499531
-0.5688494830764478
-0.4638125408142176
-0.6636259899308471
-0.5243174021772732
-0.4343964927057498
-0.4581275126184474
-0.5846233554412822
-0.4029199266377346
-0.5808793641343669
-0.7442428520582566
-0.808116714621438
-0.7127159925635079
-0.7238817794861201
-0.5679480592246142
-0.7013874767513952
-0.6017165044847368
-0.881329375609916
-0.7887305450055161
-0.7428317345079959
-0.6376833262336766
-0.7066764451034501
-0.6715251189665956
-0.8200043704239731
-0.6602516573931427
-0.6473594125367171
-0.5599573091502091
-0.646656974477077
-0.5848742528621608
-0.55266333304015
-0.38838528030116687
-0.5172910163844969
-0.4607809686489582
-0.37448364158383735
-0.3833612037611073
-0.3610874130306473
-0.507469303703704
-0.693229300505434
-0.6336484618601032
-0.6998126211014184
-0.6412034169440145
-0.5262564587724735
-0.5542949741737697
-0.6489365388224919
-0.5512928192598524
-0.6609119363259279
-0.4945241333333336
-0.6417541614370323
-0.6284420647055691
-0.5308628462762516
-0.5182257989320593
-0.6302652181817309
-0.5438098820495606
-0.4983938740006329
-0.4170860681666823
-0.49320058744674916
-0.3093553343669254
-0.604736
-0.5992704394066597
-0.7591885225728204
-0.6158114783425575
-0.7098349074266609
-0.5645499327958191
-0.6178816741273483
-0.723619051758991
-0.6980398682445267
-0.5956224445634491
-0.6520797052536943
-0.5807522768903618
-0.525914276129715
-0.7172006760420424
-0.6157374791666667
-0.5498407538747676
-0.5174909926339365
-0.4016688924271978
-0.3023601874652174
-0.40694608000000004
-0.26919039057656546
-0.5221933333333332
-0.6097344591803767
-0.5859448572812357
-0.5349647134080152
-0.6713342758497715
-0.5199664786112836
-0.543083928497623
-0.6136465109012659
-0.5011409620830095
-0.5725535028556359
-0.5879947491630496
-0.5839844916305021
-0.5804570922261546
-0.4789555825738479
-0.594533038574908
-0.5314352159537091
-0.4582533203617973
-0.4678507670613543
-0.30004140489474207
-0.40552503565891534
-0.30336
-0.5730445946225223
-0.673068740054063
-0.4947441528292953
-0.5295177133968719
-0.6169774895569661
-0.6323571267361112
-0.6470101580331825
-0.43468813071177
-0.5142793678956475
-0.43275406489638374
-0.4907039444883707
-0.6003484170283118
-0.4198236
-0.3455139316737867
-0.21812699731349455
-0.581745615182745
-0.5427158916106188