<?xml version="1.0" encoding="UTF-8"?>
<VTKFile type="UnstructuredGrid" version="0.1" byte_order="LittleEndian">
<UnstructuredGrid>
<Piece NumberOfPoints="1536" NumberOfCells="6750">
<PointData>
<DataArray type="Float64" Name="f" Format="ascii">
-0.6595328447723566
-0.56011
-0.5712167782082819
-0.3014234800669589
-0.44370517267034537
-0.2580593559272529
-0.4541588478025051
-0.35848700520833326
-0.2632095148818589
-0.3777504636197328
-0.3522738623682579
-0.3011047927434765
-0.4051782887387106
-0.4484699999999999
-0.38096834080228126
-0.4988228342013282
-0.599659460632362
-0.5117859193337766
-0.43000052865459537
-0.698560893779707
-0.6321637043109287
-0.3882763196310941
-0.11247239408968777
-0.49136422268531105
-0.33160169010445356
-0.3729317519025841
-0.09922389119480489
-0.28837290938543797
-0.3757528971688365
-0.14355085648776011
-0.3149843310588913
-0.4581326854177546
-0.2299090741440408
-0.40586061668932144
-0.32727912316594326
-0.4472212737570734
-0.5443703547355644
-0.5796767947923124
-0.4702867083075208
-0.2689912426678624
-0.4905793323440159
-0.3441990947978017
-0.25453014364528287
-0.2861140731556107
-0.3942243750590623
-0.2759310768173501
-0.32712660186125037
-0.33288977222566635
-0.23739277087629573
-0.24016592439032983
-0.3630853480592125
-0.4708300043508858
-0.2198098986708921
-0.23668678933131204
-0.4634308748869475
-0.2342873453183473
-0.3158214488853545
-0.3197536100054968
-0.39488517966522
-0.4523852379150493
-0.4840891517025539
-0.443794715850382
-0.27885832808138816
-0.4293674250153341
-0.3770497006500538
-0.18764570254916627
-0.4622967134852815
-0.39715415307836816
-0.28355952182670835
-0.16040346609941153
-0.40850513598453037
-0.6808145505269697
-0.328709349491814
-0.25510880275067466
-0.2151293290349243
-0.34786708509765424
-0.36673764648462853
-0.2647584756051256
-0.3583499982812733
-0.5889795602151456
-0.5250211626518022
-0.2859463658039412
-0.3383905008687249
-0.5060274773622099
-0.4066371245585207
-0.3206286315867199
-0.5234078338225522
-0.3456837421122558
-0.5505919202314534
-0.5400636773800189
-0.43461843895432656
-0.41368999999999984
-0.2533699398598794
-0.2942819043741081
-0.22861392795138805
-0.44505887138199635
-0.5787428369973144
-0.3693212601597106
-0.20829924914218456
-0.23424669353172053
-0.8149693190277016
-0.5272480018629752
-0.28068772727014135
-0.1699501059579146
-0.24601466666666574
-0.7221387343765326
-0.8677633333333333
-0.44347982097712796
-0.2240868796977236
-0.2243493937173486
-0.36448152510849274
-0.40915112702386774
-0.30360648219479375
-0.3685197454604203
-0.5984450098012871
-0.7241851964370597
-0.5128566736661239
-0.34203264305456504
-0.5294753998171253
-0.571180260416667
-0.40704710079285117
-0.47366919224938736
-0.5289883209340779
-0.44847118449369106
-0.5605177333333338
-0.5934035193221741
-0.4937762263280077
-0.470432
-0.39679082187364384
-0.3844407148883031
-0.42664418229166673
-0.4345569857290687
-0.32350574738503285
-0.4423328419094856
-0.3427902915696616
-0.5773315190789419
-0.8091025540904421
-0.5108560369701126
-0.2500121145191552
-0.25654038344061375
-0.4316351200000001
-0.8766209040995859
-0.7578246029673125
-0.4156056475408711
-0.18491087416759963
-0.22447520607601143
-0.5253474048357099
-0.7723038048884638
-0.8347439999999998
-0.6426178113567592
-0.33469135097363023
-0.24382455370988768
-0.3491927582876709
-0.440128524850186
-0.35940312584468503
-0.5417274766648817
-0.5953734348649055
-0.6701228681257362
-0.5032003477854524
-0.46585944604363877
-0.47075792435263614
-0.48162170572916657
-0.4615740281004295
-0.43728811422076247
-0.38728679975201485
-0.4966127653429239
-0.42473296
-0.5311923583384995
-0.5458268131109592
-0.5545570479437905
-0.569416447907449
-0.5009232276582191
-0.5788402629917729
-0.4616014152373084
-0.47029503290952573
-0.5365772234814081
-0.3973393713770399
-0.5002286226666034
-0.40896906128145294
-0.4925899382930356
-0.3325790271037292
-0.43864875618764815
-0.7097372245390218
-0.7547153433905093
-0.6723031898957607
-0.3534482794012294
-0.2666255800194656
-0.3566770612238823
-0.5547845440608546
-0.7639328722177438
-0.7427322636488506
-0.5937559821885182
-0.2944699502791997
-0.25611557223944253
-0.4396019267016567
-0.6758950615695674
-0.7436848512089269
-0.6309639103987821
-0.5134737189864355
-0.3559535700240107
-0.35513490915155504
-0.49779348159924797
-0.47581144579650764
-0.5032079508007611
-0.48402647664694287
-0.610647822083693
-0.516819340909998
-0.4368481920644763
-0.3124886812728531
-0.4628986995069359
-0.49314519317839284
-0.3115254431644861
-0.35652371558095036
-0.49025815972828385
-0.3569034260797687
-0.48099264265838615
-0.5504056113940827
-0.6046063008886133
-0.6301616360264465
-0.440575013432528
-0.533449968031814
-0.576671655665287
-0.5036015043587816
-0.4841976918422303
-0.40928563934698325
-0.42555239305641707
-0.4534225924514376
-0.42855772948956433
-0.38775337290654993
-0.3783513318404363
-0.5810842271440012
-0.41416249176558756
-0.4673227454621584
-0.3626905554199855
-0.3248023659034453
-0.5484103787629769
-0.6102656085968183
-0.59155809051457
-0.6422507331133489
-0.4972154700600709
-0.31256292113109674
-0.33942800144657964
-0.47434835631463085
-0.7362512917968204
-0.6145772601360308
-0.6317106488378923
-0.4623055101965006
-0.37879632130605495
-0.37587064307438517
-0.6814717215781131
-0.6287435709857415
-0.5220958806700758
-0.5716656866104052
-0.5029529810659686
-0.44431832073357297
-0.5675750732497676
-0.5185297783426326
-0.3700678769954846
-0.532848311164575
-0.5393099693317843
-0.550704329547832
-0.3430219853275461
-0.3513201290525732
-0.4619747932017742
-0.5186338758519041
-0.32344550293466673
-0.4052487725345075
-0.5171893529441597
-0.40187616255424624
-0.515323967640222
-0.5252591405688183
-0.5512100000000001
-0.566730095976192
-0.5001639828713221
-0.5191239036458334
-0.39180662280420275
-0.35804486298822075
-0.37862465129462625
-0.4791817411145444
-0.46722573527588346
-0.4506248409207015
-0.4447824799999998
-0.39164863730927
-0.3183854738579532
-0.5127241840600681
-0.41591222700449587
-0.46390374953502794
-0.4118323622348458
-0.2959897743133589
-0.46751794006584707
-0.5328497134394166
-0.4477462619228299
-0.40387527510995197
-0.3323981173778305
-0.4047734757902381
-0.5530130983186967
-0.4431890886546806
-0.5865600006128326
-0.535214829915594
-0.5844898805513217
-0.4074673681041639
-0.4020514687414754
-0.41495126405869615
-0.7453574214946227
-0.6176219806440991
-0.5980638832556765
-0.5937482847035991
-0.5148994807191573
-0.4207996716145823
-0.7198784610062802
-0.5315440000000001
-0.5527019138763088
-0.56099549537949
-0.6124319438727005
-0.5679459025451108
-0.6384576026785365
-0.525150344203348
-0.3918928155137331
-0.6331642626777785
-0.49873704482608966
-0.6060401971812254
-0.3586585842235968
-0.4911386199966115
-0.4598356744791667
-0.561341341184143
-0.43616764237936695
-0.44250037011779314
-0.5715469952044522
-0.4486117600000001
-0.5127200706757594
-0.4971927983962629
-0.39419333333333256
-0.43682301775270166
-0.34829465542942
-0.479353332287507
-0.47497151041666635
-0.4938453926354291
-0.49551715747055175
-0.3535525224397445
-0.32385441460566505
-0.4811855685058904
-0.31939729983004833
-0.4344467147526345
-0.4899586755838583
-0.4925384
-0.45110357225370495
-0.4947254639388304
-0.499482920295856
-0.32881604120564956
-0.4199187914210132
-0.5676899999999998
-0.44907932810971746
-0.4844297004565133
-0.38001634729921463
-0.3295660409035532
-0.534741952315016
-0.4070480719156852
-0.4649929817353276
-0.4335203031210563
-0.3444990539448352
-0.5007485908564817
-0.4825921642182252
-0.39664058997519275
-0.7238860786998299
-0.5044171289228587
-0.6164644501624168
-0.5205834872907626
-0.48118678004546406
-0.43492123484032374
-0.6934211603943217
-0.765554872749291
-0.6042828121451472
-0.6825016937455503
-0.6197994666666666
-0.5383725779457497
-0.7071202143193035
-0.4797766666666665
-0.722595899502259
-0.5836585019847843
-0.6861820321554043
-0.6686348288213818
-0.6925153555928037
-0.5608107166226777
-0.558848067871241
-0.6511063023303659
-0.522491725876785
-0.665462173063715
-0.48233768604196986
-0.5560640538602987
-0.5261252343750001
-0.6184637760602103
-0.5091744827461926
-0.5252743511056008
-0.5660928258586161
-0.5093133333333338
-0.4858251580905145
-0.4590173494946989
-0.3122247385823517
-0.385307638737257
-0.4545658370309083
-0.4575045660260385
-0.5393846843859279
-0.5440430889156864
-0.6651862192601785
-0.736673379400041
-0.6076619437997038
-0.6687692671834629
-0.6626438334922115
-0.48391407476191733
-0.56352
-0.46324900179800366
-0.31550546159092197
-0.3576559386236831
-0.4676114188127533
-0.48297600090357395
-0.29272966326917077
-0.3635188621629623
-0.5075922099894865
-0.5149112386277693
-0.506562203300034
-0.49398264178549284
-0.48842304401493725
-0.3372753788282361
-0.43157230909239086
-0.5990146666666665
-0.41159732961822043
-0.4323453016108896
-0.5692463377950413
-0.46229034357988746
-0.4999892463435454
-0.4511904547370203
-0.5470624784624915
-0.5124380825125184
-0.33569319674644293
-0.5182810168020336
-0.488930666666666
-0.5190544424698472
-0.5343313006829322
-0.34175024888135935
-0.3966019835069441
-0.4758496729700124
-0.33891312444148586
-0.5067467243648427
-0.45933665816024954
-0.3956320557966518
-0.5273122118055563
-0.44017321857607977
-0.5262206353606579
-0.8161042541847491
-0.6352233860008968
-0.6301148776245875
-0.5990092233932637
-0.5444389599999996
-0.5276997404817683
-0.5840836617273235
-0.896740275802061
-0.7196030294852709
-0.7328645054291983
-0.6642228266666668
-0.6361037363091546
-0.6438673164488266
-0.4766263670179787
-0.8597893344987227
-0.6677483861307962
-0.7388657743219499
-0.6802882409588761
-0.7419731590667683
-0.6224356119779011
-0.6998320105729339
-0.6345544441035886
-0.5439386128725967
-0.7079106998847767
-0.595709029708617
-0.5935727080223644
-0.575369018674765
-0.6330642059701174
-0.5511933365187626
-0.5767996141458626
-0.5119560374940892
-0.5285754015292418
-0.4434521340774942
-0.42368114348694724
-0.509017317558468
-0.6228944743635695
-0.5117639288952159
-0.6668248256515592
-0.7642549301707701
-0.5896773558945217
-0.7484806559576254
-0.6258940603534139
-0.5157219942650343
-0.5433481976766608
-0.38731199218750006
-0.2890931418779693
-0.2637451233823182
-0.10206635389543306
-0.26484747489150656
-0.41356000909237006
-0.5582786840563686
-0.6243819023306836
-0.3394315969222403
-0.29912140069980553
-0.4961388439321686
-0.5477059439133621
-0.5810455630502169
-0.5102421119635009
-0.5692553786769694
-0.5464693383175061
-0.4571050167809722
-0.3820578474185847
-0.5320349135496307
-0.5492043999999999
-0.47969092816782305
-0.40658612332946453
-0.5774354669690123
-0.5289627711786178
-0.5191501947069819
-0.5184967410782174
-0.6041826020334784
-0.4443396574097196
-0.35194769747187576
-0.45771886924173816
-0.4168491568505885
-0.5811166885011697
-0.5179225673249914
-0.3365210217342083
-0.3884504208333333
-0.41598966474369337
-0.3912086787500258
-0.554118470647727
-0.4767095864297027
-0.422375112213267
-0.5308808758485933
-0.5014072077412061
-0.6994070136391813
-0.7138483818970852
-0.8166473567280336
-0.6695235917396881
-0.6396932353563005
-0.533212144
-0.5881606949920951
-0.5337888334646992
-0.8214385168206211
-0.8586998520040617
-0.7385821114004555
-0.6778433195839372
-0.5997050705517669
-0.5896513637827162
-0.5481426658400497
-0.8336107897265017
-0.7488979003589479
-0.7348324350057472
-0.6548581424764383
-0.7492975872352893
-0.646552438784873
-0.7407423225870545
-0.6023955099432446
-0.5597332690680075
-0.6581456714631467
-0.6480323840876211
-0.5831752897807688
-0.5476110988558133
-0.5907508607581564
-0.5257273145156026
-0.5024504513544439
-0.4255489742041902
-0.4257047740855547
-0.35812365270706203
-0.2910545928910935
-0.5358280551919137
-0.7266153075534043
-0.7277401304926254
-0.3980087276150693
-0.6977709824005011
-0.8110078954084442
-0.5882764122092635
-0.5047240041871512
-0.6431018008202475
-0.5916980422556796
-0.38237490080595166
-0.41173015714276096
-0.3170732736746605
-0.3134384185509422
-0.09741983862794423
-0.20939930046409175
-0.2097999566026039
-0.2625002384790248
-0.27813324765086617
-0.5570229688594351
-0.7118970801563047
-0.668777765984708
-0.40866992147137865
-0.290210708497314
-0.3919310417110646
-0.5669318495436483
-0.6733612252150394
-0.6260513016393848
-0.6612360642756262
-0.5589775549057064
-0.5079565963283058
-0.3966687770647128
-0.419949367661923
-0.5199929460632359
-0.4726453810704688
-0.44407709025306397
-0.3860946719421802
-0.4940724373613998
-0.5543375924777844
-0.5663659450300437
-0.5607942892419218
-0.5596472657160566
-0.3930965738608998
-0.3413578538472677
-0.3819079484971797
-0.4143775139491626
-0.5808170116060775
-0.4752872674657298
-0.3444665322989859
-0.3708839609773242
-0.44900379999817014
-0.515481615623062
-0.5364251037044417
-0.4411364036784456
-0.431846140908359
-0.5696228136036813
-0.6119509080960454
-0.6696502748501753
-0.5833742379496847
-0.7846416757928821
-0.7087532496410452
-0.6523182574469323
-0.4975211561479645
-0.5253364304580199
-0.5777028088702616
-0.652171774976306
-0.8491349966149602
-0.6905527252566744
-0.6593978086657035
-0.5147553250476884
-0.5712960037519056
-0.6229287466418684
-0.6930673889581036
-0.7724297234359265
-0.624311032791899
-0.6256114277320133
-0.6085608440754474
-0.6491388690225256
-0.6731827126558906
-0.533334694801694
-0.5805186004685999
-0.564531709618212
-0.6135944511028802
-0.4800056396576035
-0.5057473603307759
-0.5184086041749663
-0.4124066448660961
-0.419405393984503
-0.3445046069128442
-0.3705789786319487
-0.3975265648859173
-0.24933273196941566
-0.3926116184563669
-0.6971352982033685
-0.8074790636108536
-0.5861376904599488
-0.31408725605539883
-0.5787102121585104
-0.6612347900938448
-0.6307182615265391
-0.47299319999999995
-0.4195569323230978
-0.5339386093422983
-0.3691277845404795
-0.3716649656937128
-0.40854516491322285
-0.2715530428334321
-0.1573655403040404
-0.18719818086985218
-0.3925689935505723
-0.5677267307294911
-0.3673486666666658
-0.20157065683624079
-0.41162058994972023
-0.6787310783983354
-0.7565931697901577
-0.6166436107184681
-0.4614629855342016
-0.35710121962510555
-0.2688143166892327
-0.4697714915294389
-0.6694690686493439
-0.6963131362233742
-0.6697941486338045
-0.509755230434857
-0.3778489543035685
-0.3849361345486109
-0.44836522308200694
-0.4562833894816689
-0.453929190121926
-0.37450392695292406
-0.40856057842098886
-0.424961963422195
-0.46184527624164656
-0.5383909216303062
-0.5190649084129547
-0.47471536000000053
-0.40512106914327606
-0.3201842858060154
-0.4115154863450392
-0.44709466666666664
-0.5090257747468491
-0.43627400595164256
-0.33934724674193517
-0.43084988971927274
-0.5092582315497967
-0.5554928897155055
-0.46501981350842486
-0.38965484367775644
-0.4753631161954295
-0.5941675225694446
-0.6241639237915154
-0.5096342020685424
-0.5708625414301453
-0.579802261902115
-0.7022922417817251
-0.6024419609423437
-0.5013052999545361
-0.44915738783429554
-0.6212652843741158
-0.5580476362329635
-0.6865117701364309
-0.6609229075038298
-0.5497988533333337
-0.4928616718116278
-0.5865401023680518
-0.6679551266149869
-0.5415865315675746
-0.7111849539731385
-0.5337288639526067
-0.5126692023145283
-0.44050159007454687
-0.6352301237713008
-0.538670569704904
-0.5056968251352015
-0.5833143404213734
-0.512764367859132
-0.5240506921247549
-0.41474152903921874
-0.46829082157353596
-0.4747554255081245
-0.3570901023838778
-0.39804869889704303
-0.37222711846937795
-0.43831350987080064
-0.5631697826971097
-0.40694777777777696
-0.23215234305584878
-0.5384081491623238
-0.6753170803601498
-0.6368616109781636
-0.6170452014879108
-0.43572280429840754
-0.4188584996602707
-0.5159970196708309
-0.4765319628297659
-0.4527479088846176
-0.4818480977474679
-0.5147266362421229
-0.2989695822171727
-0.28121061030655187
-0.5089348901288141
-0.4641153864836191
-0.2051085538923654
-0.5159127182468762
-0.5982427190353131
-0.7929499999999996
-0.4722584
-0.2977089892601994
-0.1995925873689096
-0.514366218806836
-0.6828080489141471
-0.6375085686244235
-0.417717486627688
-0.43746668009176015
-0.2645269516782394
-0.2516286551015439
-0.521392121283173
-0.6716717957966193
-0.561745009471836
-0.3315777212030395
-0.2927138627126809
-0.43047399635416655
-0.39215487306007185
-0.4178824818320192
-0.4559248
-0.3538600682191105
-0.39096864845279816
-0.4319879652820831
-0.3545183999999997
-0.43718715113388124
-0.44926256044637297
-0.434404064
-0.407355132303764
-0.3342676230582029
-0.46717934897389796
-0.4942011111111115
-0.440451880967142
-0.40888676603101354
-0.36197714995795766
-0.4902621963541664
-0.5432137437741548
-0.46342316013707135
-0.43720869789361766
-0.40695275980865725
-0.49690919367637915
-0.6128488151041669
-0.49769533834277463
-0.4627143128511794
-0.6138843958988423
-0.4485797953001605
-0.6121214565821377
-0.5794784156506164
-0.4945548320000002
-0.4683071395835929
-0.6879930894597915
-0.5735042511428325
-0.5018561209962052
-0.6390153518031858
-0.46369333333333335
-0.49947318338499697
-0.6476348164720597
-0.63555
-0.4923932492852015
-0.5775739829883263
-0.5215536996652995
-0.3996211827512564
-0.3817076757210929
-0.5857356368367447
-0.4486905594177681
-0.5428913270972994
-0.5099969359538719
-0.5183573929766752
-0.44550969566609316
-0.4350797836551503
-0.39645257812499995
-0.4633782480346183
-0.40524096361236134
-0.3707983942963423
-0.47612074512979446
-0.46867759999999997
-0.6259823806571605
-0.5465420000000004
-0.2774340050852648
-0.3371798855572346
-0.5046984965768305
-0.5678538866915196
-0.5685275323235705
-0.5920337478817935
-0.41040168591373916
-0.4840090186387438
-0.4000972244039461
-0.40826364831576795
-0.599670244265344
-0.5535306840346158
-0.4743505230081551
-0.3245279915866858
-0.595992172349659
-0.6122462164420797
-0.47088857879178386
-0.6820754105441543
-0.6750833399483199
-0.80504
-0.39796689026658333
-0.4330179751999505
-0.15684867696332286
-0.2878141939201007
-0.5284719918669692
-0.61584392027434
-0.34312973605010105
-0.3594376520028997
-0.3566639583333329
-0.13304883916161195
-0.31080881488902273
-0.5743886184779898
-0.4277280243625005
-0.2026246769442732
-0.32184014465798677
-0.39773978137000987
-0.29178661982927756
-0.428389092167803
-0.4953566666666669
-0.3788515854775742
-0.32043734961983966
-0.4456565001746249
-0.3367555199999996
-0.36856997750504933
-0.4104821025005165
-0.44934477721843363
-0.38712734268968946
-0.3590538674027642
-0.5107284450782236
-0.47932198112557695
-0.4470109453106715
-0.4369636346553177
-0.3921437595277801
-0.5436477795138893
-0.5008459243771545
-0.4017186052355148
-0.5055677500052768
-0.4700981432444719
-0.537420519942137
-0.5963639834421853
-0.38768819473758026
-0.5449969057251691
-0.6825820242165693
-0.4794471210035023
-0.4789863731696163
-0.5953114756005108
-0.5182742666666672
-0.5628252001351136
-0.7142001072602148
-0.6583695134791455
-0.4231461366015197
-0.5525994931959518
-0.46371892878693904
-0.5480532779499899
-0.6326488914924838
-0.5388177126749998
-0.44650524312667267
-0.5057686966384534
-0.37159238187556154
-0.4072409045824686
-0.4948680018417206
-0.4179691749473288
-0.5064297288611336
-0.513510041250636
-0.38384785990019316
-0.4131256939560232
-0.43982497872801934
-0.4264230745696154
-0.5183047933543805
-0.4552497554591168
-0.46364334988907013
-0.2800225775989462
-0.4276726790406222
-0.5158739529875705
-0.526701482011534
-0.569380696468013
-0.5372270681564709
-0.4927509434489353
-0.5181665689430642
-0.4488167742095473
-0.6088603064690471
-0.5744710869219832
-0.5788717685010224
-0.5278732881032103
-0.5743302422232287
-0.5960460206684123
-0.5719115755208336
-0.6451566542253085
-0.6131054171547596
-0.707804079355238
-0.2967654827443688
-0.3824026327150192
-0.31411128082431367
-0.18847916104388976
-0.42820638788633647
-0.5832918902329355
-0.36751795143624744
-0.22420017687437443
-0.36737554230914243
-0.21712405265725018
-0.21545979041124205
-0.5012644788925639
-0.3797549293134785
-0.2308169863194879
-0.38547209259268495
-0.2981275591841142
-0.2860596975477128
-0.5089010236274716
-0.5125527671006406
-0.4488331147482382
-0.29026649403877786
-0.42753848821161067
-0.40955543905765684
-0.36408559761941467
-0.4401007286597869
-0.5034395419632154
-0.3822483120993192
-0.4304169279040304
-0.5271113629691105
-0.42045632775366776
-0.5388156262294352
-0.5125114730068193
-0.47606992823088196
-0.6017293853736132
-0.42438144136777395
-0.44067807050104896
-0.6420245966817187
-0.5868358495281405
-0.623142127234969
-0.5272689529315303
-0.37396747901148847
-0.6130654703252479
-0.7258814817110978
-0.54282585130009
-0.36821494850020925
-0.5633124350983246
-0.5850340724943167
-0.7242597045431197
-0.6755795147251967
-0.4168728035293761
-0.40546493432686165
-0.4691569263070879
-0.6052972534581916
-0.5291601554885011
-0.34258900514123963
-0.42352630551147574
-0.3879274145859984
-0.41645051616129164
-0.3688796457425285
-0.38614511650054295
-0.4544080206406435
-0.3637439985120894
-0.4406841538334109
-0.3697405772542543
-0.5203728901055348
-0.3932294920341237
-0.41428394971310456
-0.577882931865398
-0.521725221601149
-0.5319231422178515
-0.5936295563451996
-0.4784074166435259
-0.580676348197382
-0.5929411866088042
-0.572892299524221
-0.5328578035492696
-0.5019411544409457
-0.5711563876834064
-0.49163541444323283
-0.4981497455261283
-0.4873836796875001
-0.5577119258204579
-0.4919732308459534
-0.5742750413308542
-0.3681495999999999
-0.29297633448243565
-0.4299205480000476
-0.26976218874984687
-0.41919854916305144
-0.5993843735362464
-0.5176067090307922
-0.26186011427862854
-0.32697318326009017
-0.36324351997693705
-0.2697681401611903
-0.5043580651897063
-0.3995093770453871
-0.3619914174037493
-0.4222044966785632
-0.2930019010416665
-0.42235215937898807
-0.5847584428748289
-0.48245370861748277
-0.5488585840627137
-0.3953390411753254
-0.42334081549907004
-0.4951756459874624
-0.4170132061387281
-0.5169864657798421
-0.5727116159999995
-0.47759354071968846
-0.5771049905119484
-0.510960931991745
-0.3812841261968724
-0.686891074767514
-0.6403113965419855
-0.6419322039232168
-0.6173353331274867
-0.3451220497163687
-0.4688352999040412
-0.8061183328528915
-0.72557157538848
-0.6598624349742424
-0.4088529035422361
-0.350884406829353
-0.6094368722876627
-0.5160846444800268
-0.2683674395262387
-0.44837876507793456
-0.6032598410415378
-0.8373881433269971
-0.3769898372395834
-0.2470176617161182
-0.4140374792863532
-0.591540579740169
-0.28151043683643706
-0.2872833609350301
-0.3860281045915293
-0.3679411281519945
-0.3153713513949162
-0.4412218818657613
-0.4767973333333338
-0.5114480010945867
-0.4921120646205755
-0.4053240640503961
-0.6234648590801032
-0.5916471800481395
-0.6132959867741262
-0.5983293168714376
-0.4554669999767718
-0.48366857642174094
-0.6263057333333338
-0.6193591091134533
-0.5028588176640306
-0.40887842586926193
-0.437008275883447
-0.5169866654267404
-0.4326604116521367
-0.4263237594151468
-0.47153081144100545
-0.47137305447028416
-0.495808
-0.566538000000001
-0.39231894256721916
-0.47996577633407794
-0.4075302992549694
-0.42953084011572734
-0.6305324119767627
-0.6746137150829973
-0.48070863442660344
-0.39673526649305635
-0.46947260762494797
-0.40345977174267506
-0.5095787317887693
-0.4645841185915361
-0.4708689296480711
-0.46764360425707824
-0.45603081857638966
-0.607994717218114
-0.59961804233421
-0.43810861830956777
-0.6220661345450922
-0.5963217470107289
-0.5192035494936977
-0.5685087999999999
-0.46628731769882853
-0.6389884600123988
-0.661217146666667
-0.6656156985345056
-0.7023071586349586
-0.44799475968680175
-0.35146051403962136
-0.8056780194255014
-0.7729162460865742
-0.7652713492179307
-0.5564630068839006
-0.23434364682151163
-0.4525750423641242
-0.8662897762183815
-0.7704492811832265
-0.6056262504903388
-0.25514731073562663
-0.2942492567896887
-0.19662685247522257
-0.30126178184678404
-0.5534206773548251
-0.7934441065632675
-0.16310455451976444
-0.31893964365891425
-0.5438150475011423
-0.21351732300061968
-0.3665086079080763
-0.3491013801173992
-0.6423655555555566
-0.6170847525424873
-0.5680019396257764
-0.4300867330691089
-0.5415505690459946
-0.6395156499276712
-0.677140698491424
-0.6985536040016718
-0.5075669979353298
-0.4028766223018643
-0.4914721599999999
-0.6635839160983675
-0.6178497523152955
-0.41521248044276154
-0.36263682524018587
-0.6147634270166014
-0.5176918021112152
-0.40637955039377344
-0.4689061355322712
-0.5395555307493546
-0.4823433333333333
-0.734482657573878
-0.6000435611493457
-0.605995401325277
-0.5391579830576932
-0.474908455757675
-0.5731781332488772
-0.7113778960452802
-0.6844634248813901
-0.5606485026041681
-0.5795613633835278
-0.5200243822937902
-0.5360651866444865
-0.5109774595022455
-0.5538405454680718
-0.5556824736515812
-0.6450746002682188
-0.7170099815768226
-0.5572943190009482
-0.3828727888372096
-0.6213052995069094
-0.7513045663541377
-0.6652050524058812
-0.6386632
-0.5310312692520619
-0.7411369821588479
-0.7256466084232276
-0.8055322111903771
-0.7359474501503308
-0.3359429770953477
-0.3728133333333333
-0.7709647471706117
-0.8138862438378144
-0.7818538202795119
-0.43913321228843744
-0.2059545408890817
-0.78156222400231
-0.7251141148387847
-0.5156466323345049
-0.19804273437499928
-0.23186825067162534
-0.502808154559173
-0.7050956894478518
-0.2596342666666657
-0.5410792662290723
-0.3635516284356264
-0.7369231514775777
-0.7059379001652619
-0.7283168609563897
-0.5372503796886045
-0.4605438499465104
-0.5577964017358957
-0.6792736001564922
-0.7417768306774946
-0.6834693542869452
-0.4492322322900824
-0.38424206641868136
-0.6354281359906793
-0.7211624163742415
-0.5475245282081721
-0.3856461393783101
-0.6069195146387794
-0.6422314624858192
-0.4434724114583333
-0.5393546816293636
-0.5436925509761615
-0.48631091754494715
-0.7467970111593304
-0.7135886516575455
-0.6910170386111608
-0.6905931957925552
-0.571591147986517
-0.5150764680197344
-0.6170048822714463
-0.741878165033029
-0.6482956192237258
-0.6426250412992508
-0.6009278820830753
-0.5910619014450277
-0.5261951104171816
-0.6235973846386996
-0.6087217331989625
-0.7276760457900654
-0.7165655202923878
-0.4888940558009249
-0.413948
-0.5598529199831178
-0.807350628137827
-0.7426835886821621
-0.6396024610594471
-0.6287900924033706
-0.6837059846345576
-0.7223231419962803
-0.8391904273589893
-0.6796477605809126
-0.33488120019840045
-0.6446176939851309
-0.7792652960039415
-0.712388634354811
-0.4011241119791667
-0.7068303884641914
-0.6494575527217333
-0.45869983384996904
-0.4623274400000001
-0.6531505632974842
-0.5450316280223187
-0.7129482310394707
-0.681885550427769
-0.7733770375828226
-0.6913458665272872
-0.5013714814088033
-0.47588516974604567
-0.6343448916160509
-0.6481698489273792
-0.7633376806009404
-0.5668075004116114
-0.4065800275676788
-0.5750365877322314
-0.6371365364086544
-0.6681205829914951
-0.44478153626782385
-0.5445058683723136
-0.6124692963541332
-0.5486586284722226
-0.5624844761852451
-0.5362958213904789
-0.5456384190948543
-0.5970923436660458
-0.6913271685665108
-0.6364068681039113
-0.731712896812707
-0.6481216467286631
-0.553650996705266
-0.5388845201383249
-0.6761172739469129
-0.6307974340482277
-0.594387397131877
-0.6448644248811739
-0.6036547946088479
-0.5820033797370175
-0.6058197508599732
-0.596867819981968
-0.722277202863184
-0.6782220785280765
-0.514659685885514
-0.5528136220272571
-0.7610238664696604
-0.7431848054925324
-0.5717577794998957
-0.633330283043046
-0.5270277760650536
-0.697593398255838
-0.7436969258697524
-0.6077212397964463
-0.6098323233678061
-0.6640210829402627
-0.5945016848504486
-0.6302834565294537
-0.5466925165116759
-0.5920601100379521
-0.5367843180409161
-0.6141775364657801
-0.646175163632106
-0.7318681188003447
-0.5743055604175713
-0.5039793578106534
-0.46851456248827367
-0.5600619471049265
-0.6513244364868543
-0.6437294105161935
-0.4626161599999999
-0.48523575440722505
-0.5281819649051324
-0.6365423387154596
-0.5449042746435219
-0.5624976662374294
-0.5398105906754327
-0.5965745808820045
-0.5625496401238742
-0.6146025673882481
-0.6273743821037409
-0.49715717250646024
-0.5583137526784333
-0.5583473232702351
-0.6423056087534369
-0.6623117969966242
-0.5834136165214483
-0.5827792374457532
-0.6120318269336807
-0.5567753048020377
-0.5147196688667232
-0.6379942905552339
-0.615907666918803
-0.6359739563621137
-0.49793687989251384
-0.5572194626445607
-0.6604475140520027
-0.6561422074848179
-0.6397781914388092
-0.6607042985869018
-0.5241163440380235
-0.4917492211534975
-0.4670052414677597
-0.6300897353922484
-0.5564217845239787
-0.6022054316782092
-0.489202523372598
-0.5094893838813774
-0.37743048613264424
-0.4597590306338208
-0.5609356672458071
-0.6588308528979886
-0.612492618101637
-0.518606319900806
-0.29480855714246884
-0.4570466054630309
-0.5620288447862886
-0.6325623037951259
-0.5311697333333337
-0.42141112704783984
-0.5014533710585263
-0.5589321831411086
-0.5966214180992495
-0.6437256128353132
-0.546024272907447
-0.5605753148854038
-0.5778375504808687
-0.7134423712987329
-0.6738828661498707
-0.5338919999999999
-0.43996585682454986
-0.4457037711027068
-0.563571573787763
-0.6569789311046358
-0.5961879167205735
-0.5872779660239321
-0.49320689083719094
-0.41681981994282613
-0.5552177526506769
-0.6535832015341018
-0.5524351590906382
-0.3658034329204903
-0.5358481778702641
-0.5584758880208334
-0.513505414135152
-0.5428426926167091
-0.3323721832257532
-0.5287305579829679
-0.49532975999999995
-0.5110100520768753
-0.3653899999999992
-0.31923773311379017
-0.463341244146345
-0.6001193279215647
-0.6215758767707809
-0.5160569353172143
-0.2704124612523249
-0.39187972592728576
-0.49799027946512103
-0.5676456976149135
-0.5596906711303989
-0.4316914445133292
-0.5600774759246842
-0.4931474015885691
-0.5269606456972159
-0.6784409991733841
-0.6030810131305954
-0.5026422114751236
-0.5731697580295049
-0.7160561426356591
-0.63482
-0.42229110980221884
-0.3777063753496268
-0.43725446375091975
-0.6002928241045867
-0.6096430242672157
-0.47087142795138875
-0.40406880961746405
-0.3708690347852805
-0.5927395411089852
-0.3461573442953951
-0.38009502499555503
-0.5099837828063648
-0.5266601333333333
-0.3635620283922529
-0.5334009795412274
-0.3345477951127425
-0.4128304380574674
-0.4881671686213415
-0.5493547771785767