<?xml version="1.0" encoding="UTF-8"?>
<VTKFile type="UnstructuredGrid" version="0.1" byte_order="LittleEndian">
<UnstructuredGrid>
<Piece NumberOfPoints="1536" NumberOfCells="6750">
<PointData>
<DataArray type="Float64" Name="f" Format="ascii">
-0.487267838675677
-0.50996
-0.2917251086515363
-0.5015239779279558
-0.3315984747969496
-0.36261305134783356
-0.2150266222701108
-0.26983671875
-0.28084903987076215
-0.2785637727193332
-0.32475700557966525
-0.2784850679607969
-0.3712496889660452
-0.3845416
-0.2998256565110461
-0.4662206295248389
-0.4617249349039057
-0.3623996033728167
-0.4708500352325915
-0.39266245298615465
-0.20395203504208861
-0.3183937449395709
-0.4465626544740657
-0.19046544854335637
-0.2694035845098209
-0.36413212149086455
-0.35175312463622715
-0.311667985591165
-0.5532763888406684
-0.27521983426892854
-0.3671581499019439
-0.6434609253037699
-0.2279305898570039
-0.44484974598279003
-0.2425078697251498
-0.3383265732725178
-0.39219959514948316
-0.3336932145071296
-0.17976783905121438
-0.4109754386907675
-0.23728574036876174
-0.23007287737813856
-0.27439084852710877
-0.29081485740855545
-0.2517432007686437
-0.4729595147801362
-0.38780083826821604
-0.6918388388096713
-0.26793686267445666
-0.2599138459664769
-0.5144180498627744
-0.7491007155247064
-0.31804033278893495
-0.2409799035142526
-0.5977532989309279
-0.3643336011912661
-0.23200962231658548
-0.43963487977069443
-0.3059245025418474
-0.4559696544601
-0.39102650497453334
-0.39150621616036413
-0.26648105264999594
-0.3666945829337656
-0.2735849387213027
-0.30962795856528164
-0.285580808761508
-0.2039168382167267
-0.31618931751236173
-0.50636900481621
-0.18143987553454813
-0.2787887848729081
-0.24671471439357914
-0.4623940693882554
-0.6641649101053932
-0.5783050022328774
-0.6799896944899152
-0.3737488908967228
-0.21443793440098
-0.31893859335966324
-0.6296874126513902
-0.44796476278728886
-0.3261401095540571
-0.3536065332374338
-0.49752286248048255
-0.4341756396331112
-0.38282422103320307
-0.5180185576702138
-0.4720757091134536
-0.5905423081590516
-0.4767002578221587
-0.4420966666666667
-0.35334473412280115
-0.4008732164066065
-0.36776701822916635
-0.4355753347395561
-0.29528729495361267
-0.30555335266532446
-0.42437699335825657
-0.4792238561686301
-0.24218160370869488
-0.13065709063101508
-0.31921992208133365
-0.5065274978120639
-0.5699281333333337
-0.2173348240712976
-0.4041066666666663
-0.18213362387149792
-0.4072887426810643
-0.5484104531553515
-0.5502395515602404
-0.5334807130918431
-0.45865842491436964
-0.35386854309342647
-0.2922140465714056
-0.47702747742162094
-0.48718840353083875
-0.45610078468945575
-0.44403597933454475
-0.511090477430555
-0.472983101302949
-0.5724071785147337
-0.5133246548873734
-0.6090717684516127
-0.537673866666667
-0.5708631907418894
-0.5360166732111246
-0.43657
-0.44153335222270435
-0.4844673225403482
-0.45645221614583337
-0.5806408629773737
-0.4801303787389521
-0.4763061952882826
-0.5047971802689429
-0.3855344544058293
-0.22775051569037133
-0.23378542620546047
-0.4539251981557472
-0.5111707206205819
-0.4837232
-0.30045518651703895
-0.13322577445770548
-0.23335191619871562
-0.4466067513152319
-0.5201854176176793
-0.41707135771853693
-0.33364314633310177
-0.4884279999999999
-0.2176034918736146
-0.3431426316342216
-0.44854196817909525
-0.46750469123748223
-0.4527606749378084
-0.407831657983664
-0.4129723561031982
-0.42202140412484446
-0.5480614540269081
-0.4139373577867192
-0.5182083984308464
-0.5423202780542625
-0.5476754296874998
-0.4893739069196465
-0.6179029781056896
-0.5124630378177308
-0.6044435488838945
-0.4854319199999999
-0.4708766199628023
-0.568894320085974
-0.4809034511262661
-0.5573490303304893
-0.5834177995454669
-0.5593621642513951
-0.6421199207825304
-0.5724280404819369
-0.4910246059402275
-0.5983432301030835
-0.551169450515528
-0.5453277007331921
-0.41882503446993175
-0.5171475350599194
-0.45424151909931093
-0.28254327205771634
-0.24687900220431172
-0.17815363811396076
-0.3679751103360813
-0.4668451739353969
-0.5137928783863437
-0.34765003169766423
-0.40654070729741437
-0.2286728703583724
-0.21963719839997428
-0.3554817068488878
-0.4642411886064615
-0.4365858186754296
-0.45725889801749636
-0.5559293004753051
-0.32652358926307284
-0.3351753894244594
-0.38303941528503604
-0.46544457195170713
-0.4267281953368152
-0.3728246755298155
-0.46832203998478245
-0.5160883461181137
-0.5802705330690329
-0.35088984531975814
-0.5232312263139781
-0.5753294399003478
-0.5370417318838473
-0.4820206843542489
-0.5983957937594809
-0.5071654070025691
-0.5638950123745147
-0.5225342728249643
-0.523528590872211
-0.6634858916130132
-0.5135506044637324
-0.5641189714123698
-0.6454423405662325
-0.7347853172478146
-0.547423042798422
-0.6963192516143617
-0.4765366471325218
-0.6549814474893355
-0.6306017069642487
-0.5809114181567966
-0.41923768675346135
-0.5931086026312902
-0.5660375482446228
-0.4096673076134821
-0.488202411592974
-0.4078084289836385
-0.5336374485879936
-0.4305647083416748
-0.33462558389562785
-0.2690767296962179
-0.3717079175449474
-0.24320788595547985
-0.2987933223930617
-0.34906208917599274
-0.5243307401859894
-0.42846510730268744
-0.5542368098166982
-0.3895737396661174
-0.30725405421633845
-0.29824054989480264
-0.3745218176896053
-0.5075710657206693
-0.5932723260560739
-0.561456261624303
-0.44227556833583054
-0.3569790801322739
-0.30711538364535773
-0.4591268076438248
-0.3619866988297127
-0.3305353972308327
-0.49454445977326783
-0.596149664629547
-0.5567266161794242
-0.31118368032929394
-0.5055040306426958
-0.6220602038767598
-0.5171513903890163
-0.4732445680659334
-0.6502337493781419
-0.525771273988967
-0.6053906898068826
-0.5955137274230211
-0.6274276694363204
-0.695326211654881
-0.44898400000000005
-0.44505096013392015
-0.7555422150154167
-0.45879056510416666
-0.7384235994316651
-0.6354662864228146
-0.8000930171744957
-0.7039394404435625
-0.4611683099814012
-0.5702792025896813
-0.4488171200000001
-0.7330053654752064
-0.6041725983430939
-0.48238651029827023
-0.4865957653073498
-0.4632394197148172
-0.6221388749387077
-0.4747260003745611
-0.4105700288788087
-0.33288203141144895
-0.4999831800529932
-0.5667048856827672
-0.3797990661763208
-0.3055205284985562
-0.3154673005288657
-0.36465878301301924
-0.5157580746822863
-0.3818131131434228
-0.32357498244156235
-0.23747595458384918
-0.40265302859268454
-0.5444413374170418
-0.6194821833142293
-0.5384868749777053
-0.4071620647885348
-0.29614194470014604
-0.26384974562237345
-0.47812302074434737
-0.6109242725563694
-0.39575800000000005
-0.534227164307619
-0.3843680964007567
-0.2648753058896463
-0.39235135042819774
-0.33231640382541455
-0.3360489866088035
-0.531257434431034
-0.5903122009327592
-0.37061328935457877
-0.33332879142806293
-0.524355078426551
-0.6256025193748974
-0.3833829791666668
-0.47475993594094784
-0.6732781131184855
-0.4411781357718538
-0.6358795171255203
-0.52732728
-0.5925813118412896
-0.5951556702420077
-0.38775666666666647
-0.35358364168061646
-0.7885541006674478
-0.6205984727166668
-0.40484363281249985
-0.6300420767520104
-0.46609408762140964
-0.8630493262950704
-0.7042172305730582
-0.5160917185368872
-0.7348073769366777
-0.7947456993442933
-0.5805922140995746
-0.4618494666666668
-0.5408326119279976
-0.45658244885306887
-0.6547257927403929
-0.6198337181608834
-0.4532340340833087
-0.35445111111111144
-0.5732325404775417
-0.5763782052350916
-0.4888233518826634
-0.30895035143764554
-0.3100545933136312
-0.38109016697664805
-0.5968111064880997
-0.4686755413504689
-0.19447750696852728
-0.252260043402778
-0.40609312059726227
-0.45651637541002565
-0.5279735020551841
-0.4767319063937521
-0.40179147808657517
-0.20044544189570898
-0.21413286865881298
-0.5223752781905716
-0.4845789664165992
-0.5311071010406981
-0.45927637778360625
-0.3506071549527776
-0.22633613333333355
-0.34735708237664387
-0.4049966080692187
-0.23818999999999965
-0.5390077268642398
-0.41036301315458285
-0.3254072204670388
-0.37833722050010316
-0.40221027743124077
-0.3670934857221379
-0.5610208194458258
-0.4098338381570184
-0.18745808378283382
-0.34906055564962185
-0.558578110843751
-0.4906589643632025
-0.2196769791666662
-0.5026759952714227
-0.559619477828342
-0.3000962946889848
-0.5751719253091848
-0.38009346666666616
-0.45169960735689124
-0.52347813152293
-0.37747649307708203
-0.34307416091621595
-0.4845896549286304
-0.40355929014259145
-0.3884130523410581
-0.4289874146788157
-0.4670726648067786
-0.4335951864941692
-0.43102129478640366
-0.5020776020671834
-0.3989767863741353
-0.4608371337584905
-0.50625
-0.34454592163184333
-0.49051265877198424
-0.6821322626575735
-0.5135512373811436
-0.424528437338551
-0.748089280883827
-0.7318092596529833
-0.5767348013260206
-0.5272563389844879
-0.6106409923241997
-0.5229958911345314
-0.7224178843906605
-0.8173968304278464
-0.5950792345853061
-0.38506200000000046
-0.6026784942678307
-0.724348525206617
-0.6457025092353832
-0.5843219071761699
-0.48510903839272407
-0.5680100165567709
-0.5845254631866088
-0.5753476697265731
-0.45629749618480225
-0.33325037299274646
-0.3647373333333335
-0.6155620481708152
-0.5237991079169467
-0.28030285951860123
-0.2129219157986111
-0.3607641457829586
-0.4759772980257753
-0.5958262319774884
-0.25072236311042323
-0.1080609359785079
-0.31344569791666727
-0.5020671009368575
-0.42838139111120205
-0.3933810270717099
-0.4621305385399807
-0.4612177549977445
-0.2824728365364751
-0.1307611359999998
-0.36300509442705925
-0.31988041367860465
-0.3598070415498207
-0.4920064630236296
-0.40682460345200666
-0.3420368533333338
-0.28756661789625915
-0.2006866810528213
-0.2874665695391603
-0.42991028577997953
-0.4887714964695354
-0.3980164213121841
-0.49477973300268646
-0.44663425328993883
-0.44731611718303915
-0.5287826792069162
-0.24121869284901779
-0.23695430378274598
-0.403262633148539
-0.5619004972762963
-0.36748506046348894
-0.25962346468526043
-0.5582928650793619
-0.44436577559537355
-0.32585090595603655
-0.4846598476728233
-0.3466887270923742
-0.33360220504331256
-0.5803063108769023
-0.4591705361511102
-0.5021711447960258
-0.5062177494545274
-0.4149171661080644
-0.5312377036876484
-0.42044315396851145
-0.4109285543910197
-0.43938152021694693
-0.40051955174045933
-0.3906025475726167
-0.3135280078125
-0.3660676473839544
-0.429186429926849
-0.4468899008059523
-0.6859604903905766
-0.561814336080147
-0.5359683420757354
-0.6242266212171411
-0.6243965306613389
-0.7213199013206721
-0.5938740986703267
-0.6184298755740282
-0.610742928580285
-0.6057969431456095
-0.539434311870116
-0.6044965934061496
-0.653110272490604
-0.683580719990429
-0.5079841833712208
-0.3732324
-0.5075164317129119
-0.5670912499592622
-0.5463802376131391
-0.5731242255700216
-0.5458143368927729
-0.5625657176909676
-0.5096298637817731
-0.39014681912864346
-0.35247929814461537
-0.3602105988963978
-0.4855328511400436
-0.5940599257974092
-0.3590507828182359
-0.1632242731441149
-0.2605529770833333
-0.48904667054341583
-0.4959267070588433
-0.49604066055360096
-0.12410745530619312
-0.19350516999380038
-0.414884831810425
-0.5380838374800317
-0.31664624116553014
-0.27273354549838125
-0.38284471226365135
-0.5389811158723833
-0.3950833100295316
-0.25396582399999984
-0.24496635397920116
-0.3198944753953056
-0.2281138251256664
-0.5209494856690108
-0.5136250409360662
-0.47495801992147163
-0.40026397296962174
-0.25253464420925115
-0.3902885926844389
-0.3659554780068366
-0.6073612335551314
-0.4749079852669044
-0.5842091467393058
-0.4558875064870191
-0.5823930772473654
-0.5363429508842502
-0.3140247758411146
-0.3690797505836487
-0.5480606992623096
-0.5897618687745395
-0.4174266392773289
-0.4206842248406503
-0.6107143250572972
-0.4189818324578631
-0.4952040331040151
-0.38311585430386846
-0.4755608959702418
-0.3737819373626176
-0.6123425904112416
-0.44911723027851974
-0.4935435523355836
-0.6434326328730567
-0.52919988061264
-0.39725625580292595
-0.45368198205050386
-0.5484696119878706
-0.4201754713033709
-0.41284837131585145
-0.3735795367870704
-0.39221379107253573
-0.36338319716252027
-0.42011751635274197
-0.2951079963664269
-0.3777624692357861
-0.35662658660015284
-0.31109029758214507
-0.574540396776193
-0.5555540895039625
-0.4897513138395689
-0.5839205872573764
-0.6417765167596611
-0.5632867279740995
-0.6030309549871019
-0.49128986146898823
-0.559540082868006
-0.5787972781316513
-0.5885955212158859
-0.5069780270224422
-0.572466336424863
-0.4513143638437283
-0.4966185447105112
-0.6008731250695695
-0.5078827344492671
-0.4707547691671837
-0.5216107655903576
-0.45836778815444107
-0.3722500963170308
-0.4578228233519321
-0.5279813867675979
-0.5188136042317104
-0.3963632166976641
-0.2589433562638855
-0.37356683816656844
-0.47137818169024287
-0.5604764142040367
-0.5689166134915639
-0.21534653309912513
-0.21491164946542177
-0.3704270798161751
-0.5623675891245378
-0.43047880760487794
-0.3467546587072104
-0.19272810763380863
-0.33933896796987023
-0.5117182423655423
-0.5144094529948796
-0.24187850072328976
-0.2710948541009769
-0.32340593403366147
-0.6333753275184913
-0.5051298377152236
-0.43688084832403434
-0.2792878322628434
-0.357652889667416
-0.27142953794902785
-0.5461623617838142
-0.6811204227741462
-0.5346157455259348
-0.5465637206184207
-0.37127714671288753
-0.4794576679065928
-0.4444870849073617
-0.7213939416325972
-0.6081837824839842
-0.5468628913541347
-0.5311903122462703
-0.7229685642901432
-0.6127061420485286
-0.46273082583434194
-0.4586207593512918
-0.6947625942157051
-0.6170608532293547
-0.5350456697402782
-0.5270590399214071
-0.5904222383395091
-0.46898539945888146
-0.600685889747194
-0.34958516469387085
-0.5900016719570164
-0.5031585527923508
-0.5535166425570016
-0.4395352203999561
-0.43191133427081146
-0.49576487049910556
-0.5951524202997421
-0.5332678480470616
-0.3999896831544589
-0.40406860952284346
-0.38295482239444817
-0.4559600000000001
-0.45636483880710893
-0.40299476009937035
-0.3575365511660913
-0.29527152842368676
-0.39444426047239395
-0.3951651976288216
-0.2898709429879087
-0.308728990279549
-0.3800033069067919
-0.31571294275676853
-0.49338333333333334
-0.5226329125886694
-0.4061344699767984
-0.48818433327136707
-0.47719055853840214
-0.6045439489439007
-0.5805878999793348
-0.525485779692893
-0.4116095471347527
-0.43436969682095383
-0.5106244069294908
-0.4371033746026081
-0.4641053086956796
-0.4928149195221911
-0.3295826329797149
-0.4061416744791668
-0.6213552988286568
-0.5451574404238685
-0.5139826424881174
-0.5764481301672789
-0.4701865593068147
-0.2592430985740857
-0.39273424547771557
-0.5235985171030119
-0.5548713549247114
-0.2730314933333338
-0.2681423301009173
-0.44832442332818917
-0.5054376735898861
-0.5091460000000002
-0.44268727712337347
-0.1900374244017359
-0.34120808958420934
-0.4355254826849018
-0.5157194549775775
-0.3440761431425226
-0.24852973733973563
-0.3621938646326664
-0.4426403733045987
-0.5639107378472231
-0.4369313228411713
-0.23005184170910906
-0.3104413818972787
-0.2963183562831508
-0.6402447141524803
-0.615267676586072
-0.522581907129572
-0.41991036746176574
-0.37814968908838337
-0.3441914682116549
-0.5381394730975623
-0.7810028794325451
-0.5828406666666672
-0.5521590585975674
-0.3845437879972841
-0.5682527297157619
-0.5114104241486702
-0.7588168439369309
-0.7306350859543983
-0.496451439553627
-0.6375146100612483
-0.7827016014858351
-0.6470990174052687
-0.4796322387154302
-0.4779632905584386
-0.7437209418094798
-0.6202224870001772
-0.5494511156921061
-0.49116589588447496
-0.5465600123136003
-0.49942487448593614
-0.5344356925718209
-0.3883835098716725
-0.5453894382635662
-0.5464778896370094
-0.4806400000000001
-0.5045433427352871
-0.4053023621320531
-0.3637615572278168
-0.3768854328307712
-0.5168691568505889
-0.5153706192739546
-0.48919990912912975
-0.38898159116487113
-0.2511689454059815
-0.3121502792733578
-0.4831076183095678
-0.4583249181675276
-0.34624157410038864
-0.20899032681129673
-0.44527581628435614
-0.4446662701843726
-0.2697796865635978
-0.3716525117211184
-0.472833155555555
-0.4509799999999994
-0.5233008000000001
-0.5178940396525236
-0.4477864881437115
-0.43404320285085213
-0.3376176709911594
-0.38841327251871777
-0.5723042520445809
-0.5832520803521605
-0.42472057002314806
-0.416422205931471
-0.49024379772627763
-0.3310721380323793
-0.502641429615739
-0.49335485509876714
-0.3138088837225324
-0.46322526874999975
-0.6462749369193278
-0.5026163088140977
-0.4169228
-0.5482104262303676
-0.5232162450451932
-0.2769089008059516
-0.35635368888888946
-0.6126584174141153
-0.5189101460356832
-0.19775320000000007
-0.36103689375944553
-0.4828550040172584
-0.39474545149730317
-0.3820666666666664
-0.2678619233725975
-0.30063439253708757
-0.45472196156755135
-0.40809253749999996
-0.38686726193674636
-0.25793013633459116
-0.31647049799208204
-0.5076283316256016
-0.4788789833849966
-0.5080596035879635
-0.30908041048609997
-0.22943884805972395
-0.32025512488020474
-0.2502943172603513
-0.5135672350522072
-0.6318425380588285
-0.5174207680000004
-0.5186369633175073
-0.45199246108487107
-0.3014200611073899
-0.4615934881009309
-0.7223247653058515
-0.6062105777777785
-0.457909587600744
-0.35957959400223793
-0.5403000000000001
-0.43191533587568826
-0.6994147662286422
-0.7495502420196059
-0.4981803003375361
-0.6885027116742268
-0.7784043269528156
-0.575946741900379
-0.38209083844043534
-0.36825369830739657
-0.7485042457673129
-0.6018679291221164
-0.43910396141218494
-0.32152585937499994
-0.5339925844399485
-0.44606751056047017
-0.3761177030378178
-0.4265782100026208
-0.4298807999999999
-0.5009956044637321
-0.5218260000000001
-0.5826255481523545
-0.49935348278969377
-0.33083491023243394
-0.2025971769871567
-0.36198093233977285
-0.5519324715850382
-0.5667824264410298
-0.4636710340577584
-0.22436255262677948
-0.20147237487084121
-0.5085292331060137
-0.5233572928078066
-0.42626453814430243
-0.2037025991757915
-0.4719957677206033
-0.5538604897487945
-0.38237610087257695
-0.531741611176555
-0.5162641221705425
-0.5239320000000001
-0.5228585003099812
-0.6047099637092613
-0.5547676165695089
-0.49256465151823886
-0.3350212433865308
-0.2528368447079478
-0.47520959397732104
-0.62657634773594
-0.5289228003472228
-0.4846631242708739
-0.5502078787605408
-0.38191090446324877
-0.6273154398582577
-0.5219801757112338
-0.3848989826410423
-0.5321493503594384
-0.5744229805508212
-0.3429204856375283
-0.2699973333333327
-0.3903926739423349
-0.526189400171024
-0.35350599285998646
-0.3305586666666676
-0.636960332171004
-0.391888905972309
-0.24560449088654748
-0.4683124961097794
-0.4221020388972844
-0.24377124434248817
-0.2746329937314878
-0.2581287662931136
-0.4784677936148996
-0.4921218197720479
-0.3091453185763884
-0.2691806474335943
-0.17471184928856734
-0.47397355671748076
-0.5566473172308334
-0.4187673477991318
-0.37564844177480317
-0.1718460719442372
-0.2350877394761666
-0.33421727530566997
-0.1734876953478546
-0.34586520761503725
-0.5195007830110571
-0.45273941333333306
-0.51057399771207
-0.4917871322875974
-0.22486105626171246
-0.32960573021828754
-0.5921242273002165
-0.5504094651512036
-0.3885006220293447
-0.3025269875917473
-0.2939690730057005
-0.5939959252591934
-0.7231149822876142
-0.4993712920627819
-0.7329013621614046
-0.765828153825442
-0.4620291662331683
-0.24067554123417254
-0.7697097328867554
-0.5728214762084923
-0.3038912000252129
-0.562710839918801
-0.38344087835989066
-0.4602784676567499
-0.5469590035820072
-0.6311595872718757
-0.6008596387842163
-0.4158011412194575
-0.2081439772213303
-0.2913589605194257
-0.5774214290930517
-0.5401905950690414
-0.5548625101349386
-0.33711914759704426
-0.2432064323620583
-0.5164481606376917
-0.4823953713165003
-0.550350298143662
-0.35204801669748637
-0.4588670739379627
-0.5544168560025612
-0.5393693142361107
-0.5805467968255937
-0.49508613593504064
-0.5476008700144659
-0.4187651343252745
-0.6467894674289281
-0.614235071438335
-0.5721880457604037
-0.43898831888015805
-0.3261608369757902
-0.3160765187022115
-0.5187922374986572
-0.5796014210099938
-0.5474859921517493
-0.5882650184748909
-0.525487149354893
-0.6558637664751689
-0.5383784965819375
-0.4233506693111711
-0.477463788414284
-0.4019074511869463
-0.16990461734518061
-0.22856187683405646
-0.20577357922124614
-0.44890897802118884
-0.40253117638210756
-0.3194987265412969
-0.5768372914910318
-0.330997173294188
-0.38652383892539705
-0.5233216052146955
-0.28889531303726473
-0.221752698950601
-0.22830337879727167
-0.4108885611515336
-0.5968883202645174
-0.4042631048800088
-0.26073561654977784
-0.21906763796657927
-0.17793499072063004
-0.5573800796081435
-0.4811812424054556
-0.3331795137826099
-0.29061747569390634
-0.10992832642067625
-0.250819478867919
-0.3778265685058902
-0.12228963614138567
-0.2397997749685932
-0.4123332191658194
-0.37213988336433174
-0.450721703016935
-0.1948904042629748
-0.2269943285000596
-0.5103748392243493
-0.49312960582765136
-0.35286390871518586
-0.19629850975499633
-0.5160931219482502
-0.7378419574437572
-0.5240056125140252
-0.818374518873585
-0.7559406880477648
-0.37746764942269356
-0.7880991956269757
-0.5597903650340967
-0.6263573632568189
-0.4703044527106161
-0.6229098706273158
-0.5721020058791524
-0.5096045946765227
-0.35127217702379276
-0.4002526442720317
-0.5491735384164472
-0.4738264562554519
-0.5170201205475154
-0.46078991752572324
-0.4100981975614803
-0.5005972338144421
-0.3875509371551089
-0.5393716740794575
-0.4875805145691255
-0.39167029961633787
-0.46897187989388384
-0.5528038854166667
-0.5598565576747664
-0.38409229602097156
-0.49684428290969274
-0.31914040000000005
-0.5326673268567746
-0.586795745526997
-0.580459355153551
-0.4904037349865666
-0.48370377875415826
-0.16264307053798913
-0.3525370343852688
-0.47011421713237506
-0.5171176294644352
-0.5954496507129575
-0.5407038974715107
-0.6179866990447653
-0.49534104293473485
-0.3672802701480335
-0.37008876927083345
-0.20813436981409525
-0.13245802367448986
-0.3023462864228147
-0.17146611513898502
-0.3005052351571286
-0.43275751816491037
-0.3391464375146376
-0.5277697409478275
-0.41206988879190304
-0.5060147199999997
-0.44122074433523184
-0.23548963237014678
-0.32501934613039474
-0.2511071836467585
-0.511361992064476
-0.5408630364124817
-0.3237389559158821
-0.32543919082342043
-0.22355437368125516
-0.26251927509314116
-0.5068214848931201
-0.39613307175633294
-0.3237307526903812
-0.2816811187157902
-0.13724294160772402
-0.30333945753254804
-0.1438701747271505
-0.21615154665945135
-0.41018321495148585
-0.3290214711469312
-0.39212976388330995
-0.2066234524582171
-0.4944058707016447
-0.5428485839498532
-0.32848536515962795
-0.4810866517800004
-0.7587842399920283
-0.6323925161006926
-0.8490138438430327
-0.7263010983261005
-0.7762129997570884
-0.42200400000000055
-0.5632794374085179
-0.46821476063406725
-0.5071958426940153
-0.42476144941257554
-0.5501715992913542
-0.5259508700144655
-0.4619732430301073
-0.38818097317355416
-0.446450583968307
-0.4836958666666667
-0.48970240669559834
-0.33668973479614367
-0.4238424181221367
-0.46958221264724115
-0.34478326885720106
-0.363250846880585
-0.49500201561638923
-0.4949936914371582
-0.24551396754521992
-0.31817000000000006
-0.2484379999999997
-0.398680036993408
-0.49055397694320685
-0.5000381683035305
-0.4759547657697864
-0.4827222279600561
-0.0810197140055053
-0.21483315555831062
-0.35888973784722267
-0.4060835477955103
-0.5666625978511922
-0.47923590048834624
-0.6396955895702697
-0.4257923193857709
-0.36210764600123996
-0.26105301302083284
-0.10891225848424496
-0.24951001257926123
-0.3466716112833232
-0.29521514226049406
-0.19539365185310673
-0.3928289714817108
-0.42011770666666653
-0.5616038868554337
-0.5119702934490601
-0.4754536266666663
-0.3401441726784676
-0.31813535640254914
-0.38393556809574575
-0.3136988392764853
-0.4364293676379412
-0.44092265668290426
-0.34533881569932673
-0.3943893267817475
-0.24638297118794897
-0.3561473734242616
-0.42065733681206924
-0.3597561851683351
-0.3865211626873233
-0.2894885107248593
-0.21602047021142656
-0.26368070104231284
-0.4500358790794862
-0.3817983031452783
-0.3153415262072273
-0.5017825843217952
-0.6224443043031872
-0.3788215562547384
-0.7117673700351307
-0.7069603509111221
-0.7529867896586254
-0.38538777777777794
-0.5038999220945825
-0.421989734418407
-0.414710601493996
-0.366216432223256
-0.5334426038437701
-0.47198736653578494
-0.4952849927020893
-0.33279535269393273
-0.3545096123026905
-0.41440544000000007
-0.46494472308328133
-0.3664406881129685
-0.3465158132616048
-0.4247406193151661
-0.35254416236136876
-0.2785571396617232
-0.4543704320877034
-0.32661955955111915
-0.2034729102497854
-0.18953333333333314
-0.12393225426741149
-0.30339647997740465
-0.43679210062932633
-0.42379769024677577
-0.45973490761742336
-0.3653196004540629
-0.14075184129624943
-0.09487741856188962
-0.31092191840277805
-0.3964441929957394
-0.5279001440813927
-0.532816579386779
-0.7156768427899535
-0.46565740412481854
-0.40745970689536465
-0.16503760701085401
-0.1813998782263271
-0.34264249946809694
-0.320506911007752
-0.39944105519311823
-0.2508435042861849
-0.3215455014233266
-0.4771856888888894
-0.6474890203183542
-0.4874873761796517
-0.3967458678569955
-0.36790001609037476
-0.4121816151043926
-0.3549508914109963
-0.39901333333333344
-0.3342280547527476
-0.41953410820076625
-0.4029329730452425
-0.39799503271344777
-0.30559959038584716
-0.34906323807618517
-0.3539290071766344
-0.4470811434463203
-0.3261267578124997
-0.4672178693945031
-0.48370989891472843
-0.25953194054088385
-0.6006322666666674
-0.4690160978827385
-0.6170506757594553
-0.2162329379348368
-0.4313671802279531
-0.4695194423370013
-0.3716483474313553
-0.33261073052674467
-0.4099052114073155
-0.3263338638689466
-0.5011015643624259
-0.3989436642931017
-0.334690556480721
-0.4181090535647866
-0.4346249134883485
-0.42564066122717925
-0.3278153688197137
-0.4396886817709413
-0.4297548324825649
-0.2674300654242617
-0.3554357760416668
-0.19028644305288586
-0.3161370279459575
-0.2699519115519726
-0.04846104228146313
-0.1635311742029546
-0.433280722050368
-0.4634343269260259
-0.4847169738502865
-0.3882982521650103
-0.26517671121979486
-0.09687481710023
-0.2283276371784311
-0.4963872713819371
-0.5625857110229386
-0.6677812060186189
-0.7757148540381563
-0.5905214916580556
-0.38158020387304076
-0.2126353380258382
-0.3290661340272205
-0.3298017296649266
-0.36988
-0.41313422784479154
-0.3775301796357189
-0.37018111859469477
-0.4572763632706492
-0.6923793609365171
-0.4072304359495416
-0.40775475290762553
-0.435899053526052
-0.45212940962491627
-0.3833503328166657
-0.3083989727585346
-0.40289771618910025
-0.45225233100366485
-0.4159218671875002
-0.27910370170562226
-0.40003748101408126
-0.46168063174209545
-0.49335727999999973
-0.29886571692020153
-0.4448301438313701
-0.038365284976234905
-0.3121865644059769
-0.5277245472509065
-0.4431120842763132
-0.3982866062190136
-0.44469302055896126
-0.17746767767199803
-0.482761059382483
-0.485088137714529
-0.37221859647105043
-0.5023135143624714
-0.42214481364314066
-0.49706972408442435
-0.33304747627314923
-0.40148442467451956
-0.5674795199375248
-0.3574700666359885
-0.2358019010416664
-0.2516163182580005
-0.5197798473968777
-0.4213502882827031
-0.11737227697871516
-0.08407873908227347
-0.36898899132694574
-0.5718913585740446
-0.5509762123992558
-0.5426279515904249
-0.32698378713905596
-0.2224468158351577
-0.21321030915801312
-0.5022985347204022
-0.6676950600950614
-0.7445073436827013
-0.8105877827630613
-0.6239930936516219
-0.37707301007859145
-0.3473058895026633
-0.40179593765331684
-0.3924751684232283
-0.47818442444646875
-0.4363736797717552
-0.45552556583315723
-0.4321509324653856
-0.6620475396594735
-0.3598779719638196
-0.4164623418805539
-0.4563587710495534
-0.5063691172432001
-0.2884768831698739
-0.4004920034840181
-0.4746011026257521
-0.2936108008902019
-0.41813429559826404
-0.3366889671533739
-0.028053697337604305
-0.2193036092729871
-0.5317907596206836
-0.5384653618524121
-0.46557136736744203
-0.5777628403546453
-0.12673999232257277
-0.47298866524417754
-0.5559141407423874
-0.3882608565329189
-0.4883438399999998
-0.40229719804134545
-0.5962226979591847
-0.4112804458980133
-0.29833667699937966
-0.6462337949087086
-0.5118219164913219
-0.2802023704724411
-0.3952100650538127
-0.6742809824553203
-0.5507089202314533
-0.21728486842377223
-0.1269206610590358
-0.31053318099412947
-0.6111258803119312
-0.6226963582145065
-0.6299036673680102
-0.4260110653027485
-0.28673012869864595
-0.28554378193768143
-0.4516584596863938
-0.7184791941209488
-0.7592600869267532
-0.8080464132768074
-0.5626323291930467
-0.42055495895997436
-0.3672900987195844
-0.48482160412220016
-0.4918898032734793
-0.4372237545320885
-0.4102524577392022
-0.5761939836944274
-0.3207945325616279
-0.3945061045664085
-0.4619669065608181
-0.3085141540587376
-0.4136489246538541
-0.3718553891647051
-0.1181146622566746
-0.18273769544191595
-0.5313484088650634
-0.6112507208674708
-0.4687079606959526
-0.5910496069435834
-0.1684498887766858
-0.4328751246130765
-0.6519305651742822
-0.4618735209938532
-0.3762551999999994
-0.3800041905509341
-0.6382815969865535
-0.5650049609991412
-0.3338452366825538
-0.6042879072402164
-0.6306275095273276
-0.4417464940982449
-0.5130560047241178
-0.6806265228486003
-0.6212096465116278
-0.36106400000000005
-0.1580371591974582
-0.3120224745832756
-0.6123637214339426
-0.6752198509050994
-0.6004345801937642
-0.3663822143964288
-0.27662920104435806
-0.458503620157061
-0.7024257601963506
-0.7573257536341922
-0.7535524314571385
-0.5173168687693029
-0.3892705239056269
-0.3953589036458334
-0.4284872982021079
-0.37219729255469436
-0.4887617351058576
-0.31934253786328043
-0.4182148799999999
-0.4062939913205208
-0.2899666666666665
-0.17059080537091867
-0.5278535959990568
-0.7043738688943062
-0.5044906004812707
-0.4732913535854509
-0.2991867431287453
-0.37491858551519974
-0.7079023541788385
-0.6269469676871698
-0.3622251333746638
-0.38875142281463115
-0.5765574276355566
-0.6830130241875275
-0.5151604634769652
-0.5062100754288082
-0.60908257411805
-0.5698933611186457
-0.5309648320914565
-0.5586486552971576
-0.55016
-0.2603082482898296
-0.2973939256258616
-0.6396801705986733
-0.7422170585071669
-0.5681223751519038
-0.3212412760416665
-0.4492094095228208
-0.7006811557491974
-0.7714998152302751