<?xml version="1.0" encoding="UTF-8"?>
<VTKFile type="UnstructuredGrid" version="0.1" byte_order="LittleEndian">
<UnstructuredGrid>
<Piece NumberOfPoints="1536" NumberOfCells="6750">
<PointData>
<DataArray type="Float64" Name="f" Format="ascii">
-0.35679323433980176
-0.48249
-0.4869966776415353
-0.600046170252341
-0.5393855428110856
-0.6880737752461973
-0.5925707373176374
-0.6238378515624999
-0.7504046729267418
-0.5635582969719704
-0.6469144017358959
-0.7487249206380476
-0.4235105385744096
-0.5451548
-0.6187515650897968
-0.2920915066329944
-0.37083969621822693
-0.4166956316611454
-0.5225286064441068
-0.3719128208307493
-0.4780603154764001
-0.6397343752450779
-0.6639951198594751
-0.5279585466809927
-0.7162961556291134
-0.42823916877548873
-0.7477516219655255
-0.6989471599195549
-0.2772798910518706
-0.760100971858963
-0.5732464218560446
-0.2269331359323856
-0.7099474439580026
-0.44367333305010875
-0.5404068343046092
-0.34387500968187484
-0.6123287913514016
-0.5668995505269685
-0.5943500974207218
-0.6567047227757368
-0.6645385561482923
-0.5519400596350936
-0.7386751660194815
-0.6550596838189708
-0.6459075930168937
-0.3990377783183288
-0.5518889735046529
-0.252013446249225
-0.755815695201116
-0.6883023339375879
-0.42661926206357487
-0.24478805569402967
-0.7154286141495517
-0.6598755779700093
-0.38935592825192483
-0.579373947682221
-0.5659387502752935
-0.4508872947456544
-0.38664870588964667
-0.2421815994713597
-0.8234648912150236
-0.7354966460012403
-0.7265364953340202
-0.7508480181537589
-0.8271618233296213
-0.6488381047355044
-0.6633309666850106
-0.7569216258094476
-0.7125539159960126
-0.5097542182805884
-0.697699806237154
-0.5786567348625744
-0.6890305289837338
-0.522128523667556
-0.4004126102087217
-0.3519975751417867
-0.39322362604059086
-0.6022479109703979
-0.6887498191074006
-0.566535386825871
-0.3329249490015075
-0.493725283955575
-0.6349396488986567
-0.5260171253072902
-0.46608986889694665
-0.5047630304187369
-0.43208770035887084
-0.39385295099134904
-0.3143661539987601
-0.27252369626332484
-0.9221072782846295
-0.7659900000000002
-0.7623480757228182
-0.9507735610592835
-0.6888481553819447
-0.8949780202216909
-0.6993952073390578
-0.8723095869779699
-0.8368869841303451
-0.5994934273610248
-0.5991366638414475
-0.671955630859678
-0.7292902222687708
-0.6176573136179524
-0.5421682666666662
-0.6027983928960624
-0.49618000000000023
-0.6350059762077206
-0.5574282121307376
-0.4273811740549221
-0.5308615953709442
-0.3933384418724703
-0.4153497574961625
-0.5927430351010963
-0.5974395539391361
-0.45328613367226755
-0.42887205130715683
-0.5031841975151655
-0.5547490738740067
-0.43514149739583335
-0.46176554834418465
-0.4817792413974454
-0.39727209030791455
-0.445336431290366
-0.35225759999999967
-0.36248863608183474
-0.8649720728708131
-0.722966
-0.6892487969495936
-0.922489918773265
-0.62062571875
-0.9442679263051411
-0.8341373748856876
-0.5854549454432735
-0.9735011947919393
-0.7349208940638082
-0.5892531402155824
-0.7037637691940474
-0.8383377492224251
-0.6457483682342956
-0.5538172
-0.5421580112426893
-0.5535054568953589
-0.6423217505726665
-0.6093357958001598
-0.5052437333250664
-0.5387865195288283
-0.5219168146224384
-0.48274600000000006
-0.5792424450273095
-0.5651498318896712
-0.42696466427680585
-0.4960814893649114
-0.43660812354104256
-0.46550597547572464
-0.5907309223833191
-0.531240852119407
-0.4621737982515964
-0.46919609696516845
-0.5322955316691408
-0.5121995363150303
-0.49074379166666665
-0.4881304602867787
-0.47681667487823925
-0.492969357718537
-0.4889841790462875
-0.45102088
-0.42445779789212656
-0.7622654791576249
-0.6350643531721425
-0.5389474845051253
-0.7915181613736827
-0.493956966979984
-0.8656713501412147
-0.7069402735772155
-0.5350264474741351
-0.9265872176565854
-0.7814312955999042
-0.5749181818009815
-0.5367701429634223
-0.8117876858722398
-0.8131688498445871
-0.5278272057876768
-0.5062799142384798
-0.49817065072998373
-0.7393952298030017
-0.5880916584591112
-0.4969569917787832
-0.508274350565583
-0.5234064962903259
-0.4750019861366243
-0.5583698930587903
-0.5879196900191755
-0.45843832999931117
-0.5236359830654201
-0.5096915663172497
-0.48124563132878684
-0.5401196026255501
-0.5984404319321258
-0.44580701298388387
-0.5017639066951495
-0.45797209594374705
-0.5343967281588285
-0.5760792729649626
-0.5454103551797657
-0.49706038204081787
-0.481077039865682
-0.5215314397189504
-0.5314193087639617
-0.5605117860458321
-0.4752366015923532
-0.46416463932213164
-0.5757338667668678
-0.4413934963306468
-0.5295856292622446
-0.4815383766577025
-0.671296869271237
-0.5599746011572642
-0.44743396076645237
-0.7470467640008266
-0.635521447416536
-0.4315672779986934
-0.5689917211459471
-0.5289225953931087
-0.7848584972617255
-0.7825737146104571
-0.5195359497184023
-0.5721131608183506
-0.6704500257405654
-0.827048757179519
-0.5825756102538097
-0.48580320375321034
-0.5234836969019923
-0.5049520001261326
-0.7204661358127548
-0.5974814296316393
-0.39980550010332744
-0.47746355734655993
-0.36149601476367904
-0.629664578694181
-0.5288951020136049
-0.481151730853482
-0.5077575445736205
-0.5364329356110583
-0.4482297834759386
-0.48347219976875183
-0.6135500272740493
-0.433697741268857
-0.5785777668546538
-0.5174342471825769
-0.4139792395122965
-0.5133436194138774
-0.5921408755626145
-0.5257023199204512
-0.49323708088804147
-0.48102536556084036
-0.5517462460839018
-0.5325314024753928
-0.5570307678460112
-0.42011110225214515
-0.45902227719422223
-0.44352450850175645
-0.536742565247282
-0.49997440142107147
-0.36929582129235955
-0.4575452859789427
-0.5628949069447239
-0.4191084639351201
-0.5656588397189503
-0.5326918374792944
-0.6190481222078565
-0.555526
-0.47694828656457317
-0.5550623181983577
-0.4773081458333334
-0.6495380317144048
-0.7137634903905764
-0.6473752745434923
-0.5231039871525945
-0.57756398450093
-0.5492874194430132
-0.6409195199999999
-0.5645209633009375
-0.7225361360183933
-0.7068141778604388
-0.554827478717566
-0.6044007749535028
-0.4853311611258852
-0.5946941629444678
-0.71779347433892
-0.4185301377695128
-0.5561946853635346
-0.503966627607319
-0.4454667304599293
-0.6562083670859665
-0.3858079358099325
-0.3774931779293242
-0.5185821623788581
-0.31065925645104
-0.4859088675130892
-0.5493427162777421
-0.47986177215127074
-0.5861014458823268
-0.520884629284338
-0.4615686427118964
-0.4025350776471121
-0.5958628720828453
-0.48145798197974843
-0.6133586795157449
-0.4868116774133342
-0.37452799999999997
-0.48199837879838175
-0.4925323972745084
-0.5900901117586278
-0.49881198916796815
-0.5187859122107564
-0.4456103355734657
-0.4597496481710907
-0.5350616477407512
-0.36107101878603753
-0.34763091168393506
-0.3635157067182924
-0.5559328519932282
-0.4213041015624999
-0.3041921339820889
-0.5295187795438138
-0.5068456540607563
-0.5126417254195268
-0.5575524000000002
-0.550996426534408
-0.5912769165271662
-0.5753100000000001
-0.5450384570235809
-0.5922689073977707
-0.5462047937726099
-0.5517172526041669
-0.5445074920581181
-0.6273709185782188
-0.580596754852852
-0.623054502419315
-0.7385508138045048
-0.5991490500693414
-0.5577379981038325
-0.6187283625578265
-0.6870441333333331
-0.6741835806443883
-0.6807708638148381
-0.5525423291582362
-0.5073367677558083
-0.7237608441170686
-0.5681222222222225
-0.686418623123335
-0.5601001195839017
-0.4399206999943938
-0.6077642032498538
-0.5460911876468196
-0.3202023215540402
-0.5931474017972629
-0.5267779080127918
-0.48176565820742256
-0.5570381756365742
-0.24275301436074856
-0.4318896312954124
-0.5629065523902519
-0.33204661748323083
-0.3310297326937814
-0.5788971888131159
-0.489146121297789
-0.6535873803317142
-0.5000256988860649
-0.5016745317496644
-0.35004362847099907
-0.4644340024405191
-0.5790088000000001
-0.5716971671194992
-0.5107939565223543
-0.4315033333333336
-0.49966899610354015
-0.36066214773643357
-0.49744370175656155
-0.5655471523041947
-0.44535320207648527
-0.291674477506688
-0.46822234823991044
-0.5871228006093774
-0.4250503195073061
-0.23363451463173093
-0.4113231746641402
-0.6460579012759947
-0.4281730338541668
-0.40540887001120457
-0.658003709750139
-0.4484103967761932
-0.6509547054810249
-0.4849651999999996
-0.5000952283529652
-0.5141816884011537
-0.5645525335813185
-0.5646059431061288
-0.4077060000754322
-0.5530279169249845
-0.5316605665763905
-0.4117804900683139
-0.5763249194048359
-0.5239965204700797
-0.5314883798559985
-0.601169180361757
-0.5487218684953338
-0.6524725448866527
-0.54219
-0.5516458503317007
-0.6461960964721931
-0.5709291998346765
-0.5092178007207107
-0.5784089836592443
-0.5579201414982782
-0.5753972109792856
-0.5294679253227342
-0.637938150620469
-0.6195447893388297
-0.6718136231452779
-0.5863337536420125
-0.5376059155567087
-0.6748268723553511
-0.668248000000001
-0.6387756771586747
-0.5178489667023337
-0.6216780094289054
-0.7067896880153755
-0.6607019633193163
-0.739123074962711
-0.6472016990452579
-0.5055580212428777
-0.5404046738653109
-0.6670940466240937
-0.38364733333333273
-0.6831327418619155
-0.5409906214250634
-0.4654040584918315
-0.6161326059027776
-0.368109730051459
-0.3241616390843647
-0.6075662135697258
-0.5171848487605503
-0.5596080417441621
-0.4319202100694437
-0.24172922983824216
-0.4990711210942757
-0.5832466234759245
-0.4241754296635769
-0.2789077326198519
-0.522970591031204
-0.5435889866666663
-0.5945819340510056
-0.5239959407829932
-0.5859609985808518
-0.3910551172940225
-0.3219671417847731
-0.5668548533333334
-0.5490787538747676
-0.58022697648626
-0.4515790452572847
-0.6110102048638025
-0.32211492898146693
-0.3051700576652776
-0.5535839656953916
-0.2868014811251927
-0.25203340111431854
-0.5981308569154303
-0.6450247401558843
-0.4746679170377351
-0.2682874034411705
-0.5651211105021706
-0.6842067101987657
-0.4537987331985774
-0.5733439320798023
-0.6918642748258832
-0.4087468174448488
-0.6796175090526608
-0.39700565488737377
-0.40225993105460234
-0.4954382544602873
-0.4265287859433298
-0.5531459548194037
-0.3703405945471889
-0.38418598291029205
-0.5413479354014366
-0.36965444993771523
-0.45369267186438306
-0.5650036726838392
-0.49110931990663603
-0.5975644065821187
-0.6108403515625
-0.6868626743373384
-0.6245220701742352
-0.6736277898326101
-0.56847203099814
-0.5099251727126907
-0.4688733528237011
-0.6201641845884475
-0.5838424943981495
-0.5604808838454773
-0.5254984443243439
-0.5555760946603349
-0.6324413562306263
-0.6261818415533544
-0.6033875124636352
-0.5789393743038126
-0.5678663435441531
-0.5554683591152282
-0.6348701822001793
-0.5031743999999999
-0.6306385795216802
-0.5227188370644155
-0.5617878256351735
-0.642422117944479
-0.6482700859402677
-0.7102112735394864
-0.5612632161686298
-0.49565222392221936
-0.564366524949735
-0.5519119712567426
-0.2939834321829574
-0.6266949897412106
-0.5124990701303188
-0.5129531428177644
-0.5737612359375
-0.3337895579405244
-0.38299797668581886
-0.5510528172080765
-0.510917771798581
-0.5764508641041535
-0.4069615670837952
-0.35648691215061556
-0.5833214290142593
-0.5985246417992693
-0.5730825911023788
-0.33908377844164117
-0.43022374854174944
-0.5634668480000004
-0.49659504789775316
-0.5132626671645301
-0.6406937433323546
-0.5097388225493712
-0.24788584607887557
-0.41166539380037054
-0.5360858633601984
-0.5606332201669617
-0.402034166150031
-0.6628799260349933
-0.39645554774924285
-0.17163726133432936
-0.41148211347804625
-0.2145373500577954
-0.33681007206447605
-0.6616869246657018
-0.58538484987465
-0.4471560793243346
-0.38917107996712996
-0.6423137436798249
-0.6093741283661044
-0.4426127158770213
-0.634793250383362
-0.6313126941801402
-0.3732299336778169
-0.6240284741605325
-0.315864515065096
-0.3019718794366448
-0.5569908328166974
-0.3607929083624126
-0.4296880013544511
-0.6021224808934483
-0.47248370091656905
-0.30160421024597456
-0.46299292090284355
-0.6078625226257587
-0.46760149867359496
-0.41291650970930865
-0.5726822426066623
-0.6465570582765033
-0.5456558982045809
-0.604100774725619
-0.7121043106517292
-0.728740574385344
-0.6268927853413239
-0.6581291320520769
-0.5637044488530683
-0.5374969068364274
-0.3878078176772382
-0.5283686453496
-0.5987125380450503
-0.5169360635806308
-0.5424396988393491
-0.5302277805910198
-0.46371585175119273
-0.5732315231908789
-0.562297620542664
-0.5679672223083571
-0.5402656219494263
-0.5277278604778134
-0.5529471145957104
-0.5094971176123143
-0.5531351721430048
-0.39359088840669504
-0.584764884937366
-0.4825196273518592
-0.542097848928556
-0.5451515058483154
-0.6137827086407086
-0.6498202185103032
-0.5245613694564993
-0.48249297081321335
-0.54838986787554
-0.5111272697940327
-0.2594991062202939
-0.5768055871806193
-0.4927932860370601
-0.5218708794211421
-0.5620819885898863
-0.36237288310841564
-0.5041000574498856
-0.4680259086198237
-0.5059746265674723
-0.5150728852184158
-0.4160582335486518
-0.5307285160705816
-0.6729185151890889
-0.5398570141101863
-0.6936701085439085
-0.43569534906596563
-0.3201093488966331
-0.4508474620872072
-0.4526771051639606
-0.4434564202276406
-0.5731944916981977
-0.5863929894786608
-0.24558812588563117
-0.22567732964111095
-0.44169486867768243
-0.4758570580869855
-0.34227498553420105
-0.5583609472550305
-0.46228081930505743
-0.15873198197974758
-0.27251476152614307
-0.251908124455066
-0.4201181581318458
-0.5717727658768084
-0.4733080466451107
-0.3943310628818733
-0.46313306885174416
-0.6101525374671118
-0.4759316230951995
-0.419717742791856
-0.6304718899907387
-0.4944086865088409
-0.36112653280998425
-0.5015781879223534
-0.2696998827030378
-0.2264151666519969
-0.5626059034235719
-0.41054817122069065
-0.3383059348990607
-0.5407910208695371
-0.5829585580155038
-0.5445469198307424
-0.36441449539649245
-0.4239429320445734
-0.5860495424404761
-0.572952
-0.6123403282177119
-0.4762844476253287
-0.5722853206077798
-0.7066313113429823
-0.6913580638545039
-0.6180842724396419
-0.7156923263646718
-0.676956870381726
-0.6738743700852198
-0.5979962864228141
-0.4310873333333341
-0.5262060866928119
-0.40447242796229527
-0.4460942932308141
-0.5514696228776631
-0.5110446267397809
-0.4742778183508997
-0.42044700026866805
-0.5342418222430664
-0.4421374865956195
-0.5091126953201587
-0.5165514159990803
-0.5424625765630224
-0.48947325948201664
-0.5392683993516632
-0.4548208480902786
-0.47644242096430195
-0.5427272107725339
-0.25604363422194754
-0.5968219141902597
-0.4376116776524406
-0.508104750774954
-0.5415544063373973
-0.6017672503774395
-0.6420784120159102
-0.526817226666667
-0.4564417559042843
-0.5603633752420284
-0.418713255872232
-0.30266600000000105
-0.536322929530895
-0.4807563786071504
-0.487405474565552
-0.4947453596653392
-0.40546676632153317
-0.65230089412413
-0.4217719911505083
-0.43524501068375154
-0.38277173303631806
-0.39291181423611127
-0.6950205764230154
-0.6224163577146943
-0.4029005876559371
-0.6494743194727107
-0.5250744013035719
-0.22967556705930972
-0.26645156967142053
-0.4060783618343426
-0.33981072305104426
-0.42952867311966725
-0.5137594108651578
-0.3072522490785223
-0.13612954666666652
-0.3045802783589427
-0.39323677202959334
-0.33554506356589137
-0.3956534106205029
-0.4041282849093654
-0.24175730448439756
-0.23614299607356873
-0.34138187179825236
-0.419916495213526
-0.4058218527393376
-0.3979224426866119
-0.3905533906870045
-0.5029577904927692
-0.4716554028116386
-0.3570844143594049
-0.4545378994697457
-0.5288941681990087
-0.30836415937946876
-0.4412192476983678
-0.2894234675314838
-0.33850779386046476
-0.23970740138826793
-0.4065266666666674
-0.46686348615893775
-0.3671879060594431
-0.5004575194450266
-0.5380593111941644
-0.4180699256044638
-0.47417277123372575
-0.4996950186868509
-0.46189937417666377
-0.5523470957762947
-0.5942448617107897
-0.642141964248812
-0.6220411847074092
-0.5699398482797858
-0.6572765873859935
-0.7297542656885038
-0.651866106460668
-0.631160762727804
-0.5759364341883667
-0.6346990294573654
-0.5066200000000003
-0.3513928000000001
-0.3828009719552779
-0.44619743214796675
-0.43314802524557033
-0.5042475207674729
-0.44348067439156447
-0.5564100012495778
-0.3436348125736251
-0.4322109505208338
-0.47034495445378904
-0.47219187967402165
-0.4742357579168586
-0.5370934375089483
-0.511571853576069
-0.5185649590135705
-0.3655347156250001
-0.5478664091531757
-0.3966114358102784
-0.1452032
-0.47176394031148833
-0.48153890315539155
-0.4573892288902665
-0.5729939111111109
-0.6384699677999788
-0.6458571750361649
-0.5157547040000002
-0.4634517983292555
-0.4886527679621621
-0.28742462987165956
-0.4266188888888908
-0.48118784674519516
-0.46986257220758415
-0.3927304664854095
-0.3705792875000001
-0.4912320207218209
-0.6400368593313072
-0.41876999744575755
-0.3080785655659551
-0.2683981693738377
-0.4014568995949083
-0.6821711386844247
-0.42303623361547454
-0.2715661386477171
-0.43340455461327637
-0.4941323308289238
-0.24212721774471355
-0.175796272
-0.3252677643059667
-0.26633172838090635
-0.31198623246996976
-0.3120754840893128
-0.3028096081194025
-0.20117466666666706
-0.2533382028518289
-0.37522664982696624
-0.42247000000000007
-0.29119430111731764
-0.24458912603209568
-0.29106053681144517
-0.32766484742026636
-0.4302231133809559
-0.3197776309916447
-0.25991834710028877
-0.43273824653877796
-0.473834337528675
-0.4568223668901317
-0.2580944677577015
-0.37401178697892307
-0.5577654296875
-0.28969021070953627
-0.24731909282297151
-0.5784118381897086
-0.15785730280837232
-0.4797220000000001
-0.3267038127712338
-0.32031266666666675
-0.4085898301168414
-0.4381712319448432
-0.46621343891017847
-0.45824132221586406
-0.406115116289567
-0.43840454267410506
-0.5511880050262766
-0.5302151155279352
-0.4744961545406277
-0.4937471700351323
-0.6093953874767514
-0.685452497118908
-0.5606322098899829
-0.5182754344188512
-0.6590902808431495
-0.6139506878421931
-0.5157818275556237
-0.46167245603157886
-0.5562597205167964
-0.472122
-0.4679562411655311
-0.2941778306156611
-0.3810924707535784
-0.4307608080913734
-0.41754021868604235
-0.3507972381960269
-0.49903991368778594
-0.44637423913916824
-0.33460249479166654
-0.43080550118443023
-0.4517292308532385
-0.40928663839571205
-0.5533991671194788
-0.518676061417649
-0.45928945463938814
-0.4265599498502837
-0.4883121988977936
-0.1447276619962806
-0.16505733333333347
-0.24474434831062344
-0.46958995346238924
-0.4846392909758707
-0.5507498133333333
-0.6558075335102133
-0.5733848617482955
-0.5232276530688159
-0.44341926129713727
-0.35538775628089064
-0.25053833513133683
-0.47534389267755167
-0.45010630638935795
-0.42737883375774094
-0.3098662289437177
-0.2886383940972221
-0.5195683983666902
-0.4718436334701505
-0.41449103443999064
-0.24058892554660097
-0.2312156451746228
-0.4005539663725799
-0.4682128616339689
-0.2899797710791513
-0.20562040099183368
-0.26248421084921697
-0.3043595718252226
-0.2729945231447442
-0.21913794666666683
-0.29322166572115643
-0.30041584599169163
-0.30606905624230657
-0.16770718520496863
-0.18462307999669292
-0.29132963559964137
-0.33427125687125475
-0.4345359138025832
-0.34309674929761313
-0.12330994913723566
-0.2468053615940796
-0.4554014725139354
-0.43547377151743033
-0.18445014660049808
-0.2649062697396311
-0.5357365499689244
-0.3052486461925984
-0.15683374385939441
-0.49311029274443086
-0.12414115410346006
-0.34489298902597737
-0.2161902298669649
-0.4541367024867408
-0.3760992692838603
-0.42997443159716836
-0.418306038953874
-0.31267253102048476
-0.3064781414376149
-0.5184952399213766
-0.5685895676367351
-0.544389462776042
-0.3857518748329826
-0.3242659766893987
-0.5872736802575477
-0.6901684917621261
-0.5230569526346721
-0.38908042919067715
-0.595469214055257
-0.5879315146388712
-0.42888882812500023
-0.4592261231322465
-0.5162943585227265
-0.4629709361438312
-0.547600816697665
-0.4095304666357318
-0.32545823471081287
-0.3699866842774411
-0.3246472443888316
-0.22666504443996796
-0.2464562033477984
-0.513743705471608
-0.40519090415278275
-0.3786755355826497
-0.4104417291175863
-0.36643136016049477
-0.5549016224909539
-0.48674190345112694
-0.4883465446653796
-0.5028012264742413
-0.2805942573861537
-0.024007977887992953
-0.24746558917131575
-0.13304453803025498
-0.37295019638048266
-0.5240013926293995
-0.5367725906730042
-0.5957735711159087
-0.4760200561402215
-0.5141352117710271
-0.3806982646646055
-0.26008267391920875
-0.29986533154579725
-0.4591664827443687
-0.4362940402700372
-0.35422732886133446
-0.2613106787281613
-0.27752836218259175
-0.4599107371527104
-0.40007553082665476
-0.3855697771753241
-0.2505025766342914
-0.23737665886748585
-0.33665964019823735
-0.31598213536516534
-0.2912800593837856
-0.27834612729902813
-0.2833711422212372
-0.16939566982330545
-0.2500960883518095
-0.29128335712337194
-0.3423837643945334
-0.40409514999372603
-0.2395325838535849
-0.11623529330768313
-0.3148050891919814
-0.4498356423379625
-0.4702207693552713
-0.16799249869720978
-0.21277968298812625
-0.4957141832697927
-0.3801454515926634
-0.1388714959951556
-0.36997136161780736
-0.19921638943828865
-0.214452671461046
-0.15968780729444715
-0.6060592667217743
-0.45730278588529977
-0.43007416735766674
-0.375347971341166
-0.1971217459915451
-0.18513809053186508
-0.606035629561613
-0.5826962785495344
-0.5592604621994908
-0.3632633938182072
-0.2344266159123786
-0.5771664636173182
-0.6673525671840091
-0.5345554445801036
-0.364819109320107
-0.5489178953223749
-0.5889378366991553
-0.4775385182291669
-0.4970625123947396
-0.465220357568166
-0.39658052386856835
-0.41942439999999986
-0.5525041569979122
-0.40011367833148287
-0.3486769065856732
-0.29533588277192185
-0.17086096933109096
-0.06145181549218049
-0.41539742563085125
-0.5295941984159908
-0.4334131147018587
-0.4056135832114071
-0.3866425296581318
-0.5543850948362439
-0.4968608271994088
-0.544185491060121
-0.4707852010416664
-0.15773171226015714
-0.09768468469931081
-0.37906368009919417
-0.20185127123369848
-0.3022823626659506
-0.47739829349039037
-0.5063449191017427
-0.5181971614190919
-0.38658614867124
-0.42747806400000016
-0.33450581611993785
-0.262919448963749
-0.39518807285545005
-0.5030307367224633
-0.38628107129572226
-0.32467054982434357
-0.26108761338605285
-0.3287148318367043
-0.42575856475675006
-0.46247804788312913
-0.38605112691488824
-0.29698879877915535
-0.2923220151360477
-0.2961759664952793
-0.3661698836862424
-0.4415035089894607
-0.4710371731014635
-0.2546530302789651
-0.2608409027420909
-0.3619726257656541
-0.41196766761477827
-0.4486392574209868
-0.20782556708844782
-0.3484016606874693
-0.5054466947572979
-0.32218782093548665
-0.2558982487886616
-0.4729269416656721
-0.3575996514627669
-0.20366991518908864
-0.21509205599344136
-0.5718366666666671
-0.539987864852503
-0.4768075198454322
-0.3939309001624795
-0.22512344183290242
-0.18622816563653455
-0.5973624550526971
-0.5410785730306701
-0.5664072975201228
-0.42690228202642916
-0.28706239999999944
-0.5585431804091755
-0.5656421151332823
-0.5576524130425385
-0.4696502870427776
-0.5125961721430043
-0.5046873793539087
-0.5493406807576356
-0.42034508158743594
-0.42354892403100836
-0.35642399999999996
-0.2473366666666661
-0.542530056874781
-0.4853920279532429
-0.41840851839815163
-0.35545108138871656
-0.24268291196133043
-0.12482691330274663
-0.2991208925537849
-0.5531922916666668
-0.4784449195604032
-0.47630372749772737
-0.46217697552421644
-0.5796744259125614
-0.4640336357502068
-0.5219659652820833
-0.3991343168402775
-0.2589427780458156
-0.29278330350779275
-0.5166700524901844
-0.3655956626791488
-0.36535273787507344
-0.4207148348832402
-0.4126864533333332
-0.40793167971944005
-0.29560933953296104
-0.38819904
-0.39110117293510543
-0.3667037252479528
-0.46304426907110846
-0.5807711055986211
-0.3875895424674521
-0.3946132939416718
-0.3594596113452812
-0.3809353544874116
-0.47858087293912394
-0.6282996796858861
-0.42893273264037474
-0.3915540052505176
-0.38400513173940537
-0.3644482973334758
-0.5904852205289578
-0.5140806487221881
-0.35215692772963725
-0.44433151038644403
-0.4587649560039251
-0.4153082375984705
-0.4198746542222213
-0.492215702704967
-0.3613892852242207
-0.47500571481518844
-0.388946528391517
-0.4223588888888888
-0.5472290944857933
-0.4655295796060072
-0.44406859641570695
-0.35063154626149884
-0.28409533787972663
-0.4769721092512222
-0.49523219794417866
-0.4999127894996261
-0.4842458084506928
-0.42110000000000003
-0.44502269580491755
-0.4584569158925332
-0.49588870110843436
-0.5601937769222277
-0.4152864283254108
-0.38611556350005644
-0.48641639738916087
-0.33117058255316506
-0.3973088995693366
-0.40308333333333357
-0.2809369787146096
-0.4205698968731271
-0.5320623870822789
-0.43500592900075047
-0.45459472089325464
-0.36873429785140477
-0.3292452363420807
-0.3763501521538383
-0.46432427662037007
-0.4912953469243428
-0.46784653514414015
-0.5606489047671971
-0.5122627078942558
-0.38537447447819795
-0.4537117982365502
-0.4602009193176528
-0.4529537916637895
-0.4551720149674025
-0.6083748702842372
-0.44235661478743343
-0.5069087114092793
-0.498024728154574
-0.37243995555555537
-0.285492618551967
-0.308226059791968
-0.49240298739408866
-0.5174455645361798
-0.42357799816074676
-0.5082305721027445
-0.7002100000000001
-0.4619301642341546
-0.49374041449190836
-0.46345232190047464
-0.4262540910020991
-0.656472196251059
-0.45050284573198796
-0.4782918320091836
-0.46119180560472
-0.575114661458333
-0.5275112140938206
-0.5066382278614986
-0.44051166012089654
-0.5219442666666662
-0.4852584719243999
-0.5279614031824754
-0.41275607012468135
-0.4512343754019224
-0.47503965729537984
-0.4441779110838431
-0.45752975091174924
-0.38964223806571596
-0.43637214603815916
-0.41071052087849297
-0.4393413175907448
-0.4723327570494151
-0.52366205906179
-0.3556594513194677
-0.35343908389614787
-0.3799430867985576
-0.5377320894476032
-0.28948060050317936
-0.3162231971326142
-0.36698012760416665
-0.35761897431128226
-0.315141371469216
-0.4031102727836332
-0.4572678890266584
-0.4153188700031729
-0.495402326380816
-0.45622395597284
-0.47119792477292305
-0.4843308588455661
-0.46551257737833596
-0.5611437937789391
-0.43556302747066594
-0.48227092520298426
-0.41172133827650353
-0.5466065663489346
-0.38609857130821373
-0.3648732130605498
-0.46252239663133393
-0.6080279514241389
-0.5035868541239162
-0.5489551113904942
-0.69175
-0.44917030555280496
-0.5268552968561733
-0.6258686490449388
-0.45457600239718826
-0.27697428367476995
-0.41022706886054033
-0.5873327897830127
-0.5633399856534246
-0.4196614309212448
-0.6230525682931365
-0.4782743508482114
-0.5178502270353279
-0.5106735575248353
-0.550807625
-0.3919286745272066
-0.5336144544450541
-0.5557968109113453
-0.5588454399999999
-0.4412309026077476
-0.5336718313701178
-0.5376895370944412
-0.38674987648611275
-0.4872149179127809
-0.42991221946234787
-0.4728102182648713
-0.4803244914364039
-0.5437499995656802
-0.3211820482721785
-0.39547043624500516
-0.3885252066675322
-0.5420025211820627
-0.4777968135660775
-0.25653349878709863
-0.2861673314455928
-0.4344989411035338
-0.3636780250751182
-0.2768670717219734
-0.3278762326388889
-0.4009522180041465
-0.29485266338326704
-0.35075250154990695
-0.5677944500929949
-0.5452164219374166
-0.40849679792224974
-0.5057309556987959
-0.42153848204174404
-0.4980906977889618
-0.5046063011663949
-0.6286495641533119
-0.5308825270964642
-0.4319601044687069
-0.411522291961149
-0.4426581233513301
-0.34944934125076704
-0.3888276715391379
-0.54831469244259
-0.6520802372614329
-0.4437650096092904
-0.6142929200247981
-0.4994804864176225
-0.45453881009395564
-0.6543702462985123
-0.540804708204174
-0.3420345186742942
-0.45439556623461436
-0.5686256476792727
-0.5538768854699333
-0.4595740936474797
-0.39991664683054706
-0.5471943365588996
-0.5359222484548012
-0.3934685148276234
-0.5567491781773094
-0.4995504332577821
-0.6374489898050566
-0.4635327133182355
-0.413500687893827
-0.40970745810766845
-0.3941277454222225
-0.5135815295189543
-0.6758846010549834
-0.4056347628053605
-0.33619877143835536
-0.2679710203435374
-0.47835304
-0.696098938627591
-0.34956433703037093
-0.26578120302459113
-0.32805431080801783
-0.595565326982868
-0.3245705526394546
-0.36076298861087414
-0.3979112469253146
-0.40115913881271664
-0.32700361851622234
-0.5545965327131785
-0.6540662930432934
-0.41231355681597587
-0.45834832813017884
-0.36979727337604124
-0.4100210290512329
-0.5331753967761936
-0.5555338364410202
-0.6361976897828842
-0.4216061574024011
-0.389197950348372
-0.37370641285025646
-0.3358888206905228
-0.42582627869417605
-0.6214168521452771
-0.5805972692350351
-0.42170079312335756
-0.4167283777962903
-0.627604713201812
-0.5599723855755321
-0.3906439029218059
-0.4366541825243602
-0.5744586181622736
-0.5355273816359817
-0.40739706073898896
-0.5795379157263895
-0.48965661864229043
-0.6407264482342815
-0.6032500884867135
-0.3938022645329345
-0.35164891849078983
-0.265416672206718
-0.47512794296342215
-0.7182843954617225
-0.6063661047890326
-0.37736602904515415
-0.20299432568027861
-0.3600797333333327
-0.7610151913131517
-0.5786008977423428
-0.3425100080000181
-0.28788201136803465
-0.6855736869777367
-0.44665326527093246
-0.3961742415626937
-0.38264063860204584
-0.4968692314113606
-0.3637630542635656
-0.53803
-0.6544016497344813
-0.5170459981265837
-0.3892928701359402
-0.2903511827099176
-0.3061760420985178
-0.47577783755967507
-0.6581947475066395
-0.4946823893449726
-0.3553449729405261
-0.2768832931088498
-0.31909808131593526
-0.4908368158457837
-0.6591107535781888
-0.48703507031249976
-0.5838117476751395
-0.5999541360068902
-0.4548939517142277
-0.4924441547766773
-0.62192136
-0.5396283769373837
-0.5992466666666668
-0.6767123299984141
-0.4978146320941727
-0.3277492891528031
-0.14771225476265573
-0.3880346269890469
-0.6390539780946476
-0.6967876867128154
-0.5273424865707929
-0.23642817182722306
-0.25733933341599563
-0.6379356013639182
-0.6716222984924319
-0.4682809292430569
-0.2967791713234343
-0.6128675718123578
-0.5218776700627507
-0.4196305440725207
-0.4023540444309868
-0.5639456919896643
-0.47694
-0.5791554741976155
-0.618883996193182
-0.43904787044387805
-0.22882893884391645
-0.17312391859513568
-0.5860166796875003
-0.6069945740848043
-0.42227620999543075
-0.1724881069329265
-0.40045131755874824
-0.5920874028590135
-0.6403520727423022
-0.6633857333333335
-0.558966659574927
-0.624580553833437
-0.6249425924624735
-0.6086659979283856