<?xml version="1.0" encoding="UTF-8"?>
<VTKFile type="UnstructuredGrid" version="0.1" byte_order="LittleEndian">
<UnstructuredGrid>
<Piece NumberOfPoints="1536" NumberOfCells="6750">
<PointData>
<DataArray type="Float64" Name="f" Format="ascii">
-0.6303445720958107
-0.7238
-0.5850272427100919
-0.7989052679438692
-0.6254983359166718
-0.7106469210772762
-0.5058761206527799
-0.4832760286458333
-0.538768517736341
-0.49791304628172833
-0.44867322690638567
-0.5047589609006643
-0.5951508333229996
-0.5506055999999999
-0.6226192514683697
-0.6461108432772803
-0.6289480037197768
-0.6979929148110997
-0.6319928546262156
-0.6023612130605498
-0.6141928628493193
-0.5790204375275767
-0.743642822897293
-0.5717832371435749
-0.48033072001665994
-0.5458322443329262
-0.7004687840785272
-0.507117460731226
-0.5654896197148175
-0.5651946172442756
-0.6489826185416164
-0.55289058208665
-0.5465545761553641
-0.7090504978337345
-0.6627901553213472
-0.744706034280266
-0.5644766523186157
-0.5838976999380038
-0.6017090107820636
-0.574265596622192
-0.5569990482927261
-0.5898731219001859
-0.5411057534160423
-0.7238158648481089
-0.5054481287172607
-0.5982430879778338
-0.5010099385737443
-0.5831873759454433
-0.47956754847065836
-0.7161965602056376
-0.5431501790761627
-0.5210774191309836
-0.553050620484333
-0.6719742891940806
-0.5511776213581314
-0.7108116923728676
-0.6621370526351493
-0.7759920513625856
-0.694202276379417
-0.725519497172885
-0.544350587205365
-0.51484786732796
-0.49423375341383396
-0.5078081872736294
-0.5249748480000082
-0.5316272899849094
-0.5481864340609456
-0.5016881036919544
-0.4974703145563855
-0.6689184614730724
-0.5551836121582691
-0.8279284459599098
-0.4834283165946845
-0.47669829288442456
-0.7300147380037204
-0.43672592856178843
-0.6354643528332717
-0.5224825780571347
-0.5779293397381586
-0.8315230915022286
-0.40516275271293595
-0.5748126079972056
-0.6616917456085134
-0.808485195132216
-0.5879300576427324
-0.7302877659621722
-0.7717020915583462
-0.7313864824274089
-0.7374676899359373
-0.7249079502330914
-0.5064285679395687
-0.48119666666666655
-0.42831288486576974
-0.43728554737965736
-0.46902661892361136
-0.49179641615986464
-0.42647473857690704
-0.4732884949022936
-0.4419516031642752
-0.6727768588551354
-0.6091924860496832
-0.46535114517421955
-0.4625141331960551
-0.5230420739063858
-0.8218423999999996
-0.6542090791244101
-0.9075400000000001
-0.5250737614682764
-0.425180128212449
-0.5483591241370066
-0.7458896796858853
-0.49771097146833126
-0.3487059196720639
-0.5924422029636971
-0.699761626898738
-0.9234288997044663
-0.3147584217658434
-0.601598859369325
-0.7241332695420494
-0.843921098090278
-0.5740160378712822
-0.6943480170266537
-0.7398129127918996
-0.6482674185305523
-0.6789110666666672
-0.6657361975614803
-0.4826969225894009
-0.517528
-0.4832225392770786
-0.4007715808921722
-0.47210389322916674
-0.4836492136138916
-0.42004449556476575
-0.5987383924364539
-0.3996102144174784
-0.3774169495591269
-0.3748754210714163
-0.42626168810210713
-0.3779845628667839
-0.5810744895083301
-0.7584918399999997
-0.7100054250108484
-0.48618582599763255
-0.48785582140409117
-0.3748346175332047
-0.6971743121279116
-0.7637009671419714
-0.7920587157331433
-0.7972099999999999
-0.5962884270795502
-0.479242274884321
-0.3208204875425836
-0.6431319973257716
-0.2680657656562135
-0.4047289961782539
-0.6369941656210062
-0.7850268009903113
-0.8196371142662285
-0.366705598296555
-0.5802511251449475
-0.7000350963508276
-0.7128586276041666
-0.5056636303308488
-0.6090958786395791
-0.5754965114693117
-0.5754103532009581
-0.4853377600000001
-0.46522319528828265
-0.504259498129663
-0.5269727319694151
-0.5437085833493781
-0.49100652633741815
-0.48460617412048185
-0.4935871808913686
-0.5066407085915595
-0.49756254095034264
-0.36717259162933474
-0.399856881072071
-0.6131856883553318
-0.6229813390369906
-0.3301533748180114
-0.3880028411866477
-0.2847242207244379
-0.43921501067713736
-0.42990252320794825
-0.40975964325820097
-0.4022444732826223
-0.7068970820956033
-0.7127511957005659
-0.7346392871225734
-0.6046974020542711
-0.5566359467856402
-0.3925635461865877
-0.4437441589722393
-0.6603882151825572
-0.8193028275060251
-0.6434172886960113
-0.6832619943401483
-0.5775646441308262
-0.3220833317676038
-0.39038441874611735
-0.26289243605770024
-0.518601833612644
-0.6314085716012413
-0.7588242399547958
-0.611148944272612
-0.4615260822449417
-0.5133520736240272
-0.615716397314399
-0.4842899695911464
-0.4373101819420218
-0.4968048404042407
-0.3585518745553497
-0.47612778553394725
-0.2634390873320926
-0.2363939510028233
-0.5387716056114072
-0.485482516015706
-0.5974623499312877
-0.5329433916098366
-0.5910737458067122
-0.5442289626897556
-0.5917858887361457
-0.48147657942858585
-0.4824137019470048
-0.4754182961355647
-0.5990511671271173
-0.5411720727009716
-0.46190337346650695
-0.39673618992991605
-0.3701060370864773
-0.6246020500224637
-0.6318069109363672
-0.5218757852396454
-0.3745714412480299
-0.4584408894649236
-0.34667817730936074
-0.5729742917958263
-0.5263625525501651
-0.5224664022497444
-0.40566259868253707
-0.5539452770820419
-0.6100338132091326
-0.6932633896305305
-0.711627263621581
-0.6251758956686557
-0.522367926258486
-0.4010392665840043
-0.4814378044513819
-0.7077613486174882
-0.6662721843356062
-0.7093808500645262
-0.6033471804603588
-0.4881628947902759
-0.32273028343215643
-0.43279050534175606
-0.5197464529034926
-0.5920216884037365
-0.5916779812691497
-0.521738782325893
-0.4508001849818338
-0.4548992563091547
-0.45547876851621355
-0.34737545672207615
-0.4027134218650212
-0.35777037574955023
-0.25819729453658896
-0.3476355583659276
-0.2145198146724526
-0.20774206142756405
-0.57291729807707
-0.414748
-0.6204409221898445
-0.6814407345904807
-0.6327107994791666
-0.592893362903492
-0.5638654178549288
-0.6384856826642463
-0.6830900063076375
-0.5694225015499069
-0.624325195032331
-0.5799939199999998
-0.6359679225591107
-0.5335755746403659
-0.5011704732382725
-0.5878938509609722
-0.6005197160570366
-0.6240578136507602
-0.5181751661928152
-0.5166923704522316
-0.4873936770682648
-0.5723918966073207
-0.5794772849503892
-0.5578137558309367
-0.514938797887463
-0.5870733272935206
-0.5084898902665841
-0.662007533357433
-0.6263755636372076
-0.6003151095922378
-0.5145457487341626
-0.5643802429262247
-0.5029739918359641
-0.6956742802188131
-0.7030622566687582
-0.6363187406601957
-0.5577398624967601
-0.5014193870634428
-0.4792826008192889
-0.5963724153046432
-0.680558
-0.6198089315930061
-0.5606445142049507
-0.5180283211958395
-0.4199227283227512
-0.4769320394363306
-0.4498891107253566
-0.5032965004935671
-0.42757484779181704
-0.48607601760803537
-0.3831818629286458
-0.39766024776085435
-0.3160402081072593
-0.3478455624999999
-0.3627124468917144
-0.26452922528460326
-0.34537033292002484
-0.267894241921171
-0.35664287999999994
-0.3466736838189708
-0.5617910593754524
-0.3686799999999999
-0.5449771942877213
-0.6217325803664738
-0.7172967572633566
-0.6180419574652776
-0.7465303383911334
-0.6332702386856789
-0.7084337977516242
-0.6368490289610006
-0.5687793655713992
-0.6767831039718888
-0.716061817548745
-0.6893281627883661
-0.6788397333333336
-0.6433178628755661
-0.6665239636288494
-0.6663063379548722
-0.6645051379814024
-0.605579667079322
-0.6316733333333324
-0.585227378238387
-0.5901770740657218
-0.659237843861007
-0.6039436644472859
-0.6567549846033015
-0.6269881905352354
-0.5287174735023282
-0.6303505528350258
-0.6128510181798105
-0.5875006004050927
-0.6648665094402717
-0.6049318872409505
-0.6845390718500893
-0.6353368220431027
-0.6060163475548065
-0.5133404625611355
-0.6088759138665014
-0.5663700913798684
-0.6410750167607002
-0.6350797547887
-0.5846243815209499
-0.5199595240152631
-0.4817369777777783
-0.526889104516709
-0.48099585505658266
-0.511649999999999
-0.5056341409378361
-0.5101723570134377
-0.44071491048563743
-0.43862510298271035
-0.3922110812438255
-0.40703736820281367
-0.39497621564134566
-0.35127337935018077
-0.3771823491846979
-0.3367727367710431
-0.313486123371761
-0.30311214041293266
-0.3506863845486112
-0.2764945537472609
-0.27202380929919195
-0.4262569156850589
-0.24851018424222804
-0.4420062666666667
-0.39568925811118005
-0.5043685625615695
-0.3994298078115308
-0.4738930450772167
-0.49427695153564716
-0.5291567792932425
-0.54771438617398
-0.6047846850643549
-0.6904814321140739
-0.6921478331098889
-0.7796418075681739
-0.7847512124031004
-0.7527365241697471
-0.9077321883332204
-0.76726
-0.6757963370326739
-0.8753706078078821
-0.5751396416615008
-0.6268391444867691
-0.5745038957047125
-0.6149619599533372
-0.6556555425716958
-0.6748341612436287
-0.6466818048502126
-0.6735750189437133
-0.703551979913205
-0.6769249029255046
-0.6539928829646177
-0.5845759191722585
-0.620875333333333
-0.6413994810870896
-0.6250229790102627
-0.6541176029170933
-0.6978774020184487
-0.682109638161574
-0.6542358842526493
-0.6280092131680101
-0.6021024006291946
-0.6400602202615828
-0.6525242277057882
-0.7387913333333334
-0.5899614145679344
-0.5874610844729625
-0.6477199395700182
-0.5978096293402776
-0.7244503619567237
-0.6379523033294313
-0.5733615085241207
-0.6518974960546711
-0.5498641117999591
-0.607323318576389
-0.6431961983795772
-0.602270260049669
-0.6107752008679482
-0.6138700052897476
-0.5857679222038592
-0.4953339733415996
-0.5347229066666673
-0.6065892804522173
-0.4192108488505853
-0.5445913995540904
-0.5556748640036672
-0.525058389096264
-0.42695101333333335
-0.49380112791899194
-0.30866169496743284
-0.33966742095474345
-0.4589346494664655
-0.47422797224716345
-0.443682731224777
-0.39908421409382083
-0.37701304983720146
-0.3647125495359635
-0.3602798200797859
-0.30777316461836635
-0.2969684390508482
-0.27987999210409226
-0.2527293936019837
-0.35463712336420605
-0.3615609767185668
-0.17358985376295918
-0.32753993010794935
-0.47677563521012006
-0.25639773800988924
-0.500142626906385
-0.4327064625991003
-0.5105128363298207
-0.5725345767577802
-0.6330434224045515
-0.5239146969773258
-0.6802022622338947
-0.708467296800734
-0.598473246213442
-0.844948622148852
-0.66553560736165
-0.689672944588002
-0.9259818524351976
-0.5244344661458333
-0.8077433586278903
-0.8023947664719203
-0.8103239078321972
-0.479989382517049
-0.5544858075561213
-0.664696740993712
-0.6813845722986936
-0.5338337525002753
-0.47888996014921875
-0.5776762347525216
-0.6991989281686947
-0.6746033496590204
-0.7072725690192461
-0.6180644902833418
-0.582905791904471
-0.45221659740035375
-0.5426798651081343
-0.5293839326307083
-0.6956008000000001
-0.5684353530493637
-0.5066073823421965
-0.46736404045824226
-0.6301211945718816
-0.6485172783306795
-0.6549982268544984
-0.5311413862368256
-0.5135530856246947
-0.5635590508317475
-0.6809711926591855
-0.6811663859612862
-0.5844911862928645
-0.5515635235306443
-0.5660051473518807
-0.593260359375
-0.6771807001351937
-0.5542996656422359
-0.5661409306494206
-0.5761406310256943
-0.5193024704277746
-0.6088538490774466
-0.6180112712713921
-0.548017740235586
-0.4351468116690764
-0.6154743138324433
-0.6136077752357955
-0.5508845223291666
-0.48163699200000015
-0.5561521887309067
-0.23852281562072455
-0.41745684333415417
-0.6107927176416549
-0.5707725293214482
-0.5118334693945031
-0.47620069659020464
-0.22698833500777185
-0.3181571481711098
-0.4512180499129243
-0.49929799331627817
-0.4938258986449095
-0.4981246034625331
-0.42185506882940077
-0.3373358114321141
-0.4216687215506063
-0.3424044127733954
-0.3162283626268864
-0.21027393960340077
-0.30514253118412954
-0.4622184009286699
-0.402182547800908
-0.17516764840212826
-0.4573274940677941
-0.5367813918654961
-0.34988123761591655
-0.6113343578425293
-0.562733507104205
-0.37285999380037177
-0.5814771472975034
-0.8006328662126464
-0.7087870951728741
-0.4251764061016426
-0.6955360945077783
-0.8941433975234278
-0.619151422127386
-0.5234945359561128
-0.7843859379491157
-0.8373473914164777
-0.4717523279603224
-0.5767360450591504
-0.8571407093911719
-0.6295830473362337
-0.7905470437554188
-0.6864139730497198
-0.7629323279603224
-0.37344464310807984
-0.35220160210364004
-0.6512280666779714
-0.8187939315783814
-0.6706968345939243
-0.44611767135083075
-0.34205078597476457
-0.33896298540746383
-0.6484270791566865
-0.7153348540610565
-0.5963366026717463
-0.5710951339472379
-0.6408069109132289
-0.36221607352311663
-0.30399198295479013
-0.4473278102145593
-0.5689607968588547
-0.6367110810084721
-0.5545979700468796
-0.44304319998975766
-0.3312576866763857
-0.4702032228972926
-0.6471059572997234
-0.5978132047605557
-0.4205127845587928
-0.45987213481427963
-0.5349328895914595
-0.6325658237861144
-0.5270515753943662
-0.5023618434255045
-0.4844732882413733
-0.5263325172467271
-0.5849895263640259
-0.5926430257013137
-0.4781234085554864
-0.4902980999491764
-0.5284094884562923
-0.5515664716655606
-0.5988310005192371
-0.6361072601722385
-0.5122752448853066
-0.3108721828699367
-0.612332366735513
-0.7029963969435618
-0.6024598955207661
-0.5584349761851629
-0.5395421835328192
-0.2423581488497799
-0.36128449746143515
-0.6707544322120191
-0.6428758637278462
-0.6341590277881098
-0.6004305746700299
-0.2678444999984854
-0.43235242922091416
-0.4834987348619056
-0.5672787393285751
-0.537273263996695
-0.6623729846395944
-0.44807507121731577
-0.37655478545154003
-0.533973512049096
-0.4179017012592616
-0.41379698284974636
-0.2052202935624443
-0.4673961128419836
-0.5789836099886844
-0.42215375531166055
-0.31152730336326695
-0.6279935719905968
-0.5083380870678755
-0.5123700885989174
-0.6277323319694148
-0.6428507435146372
-0.21345567817042
-0.45844777306711754
-0.8144288859121859
-0.8667393727088705
-0.6185259053643416
-0.2607154443692378
-0.6168157228385777
-0.8438545053427369
-0.7546379686829571
-0.5452452
-0.43638526415360707
-0.6777468652347465
-0.7856021318942759
-0.558304308217697
-0.5847405491526484
-0.7525177621698306
-0.6442321503977554
-0.7697470012761726
-0.7492880823519924
-0.8583149018392235
-0.3210413333333334
-0.20319466319721338
-0.49059788298751333
-0.7976321045241995
-0.7330371963035023
-0.5940685191930553
-0.4596777652407527
-0.31304481943497203
-0.20382630620386163
-0.4654114602004656
-0.6777248429961952
-0.5768504585503773
-0.5960182259223359
-0.481137481028126
-0.22599056987273716
-0.31687837413194414
-0.42623108801607595
-0.5561336391892285
-0.48738566749328444
-0.5358208872416904
-0.4291103083852128
-0.3300725707790865
-0.3178260529585994
-0.5899373411960712
-0.45179049273398125
-0.35365279999999993
-0.44750440366682637
-0.5227070633467582
-0.5210390076904119
-0.41478333333333356
-0.37972687001446603
-0.47234139190741925
-0.5246899188077171
-0.5104962001446581
-0.5397995077603496
-0.5143595536267824
-0.4880744588926487
-0.5598618076259742
-0.5364170016085853
-0.6111619817708344
-0.6779847688782339
-0.4905222739438695
-0.29382963279343083
-0.5930050593119077
-0.7589874525349951
-0.639802071502377
-0.6479469895267617
-0.604875248951629
-0.36321863026148177
-0.3760494906438632
-0.6616171385389683
-0.671837972178203
-0.6933472799999995
-0.7621882303858126
-0.35174130957923677
-0.5542539710594311
-0.5166104516607585
-0.5970911155453003
-0.5337398697802586
-0.7378181202727826
-0.4229615777056142
-0.45047746227362967
-0.6229836670557577
-0.43370290710703086
-0.5003419007782055
-0.2709200173669885
-0.6318829912000514
-0.570018698800901
-0.4121823499031008
-0.47723074333819687
-0.6746050696350054
-0.4191265310556513
-0.627684628739311
-0.5473572553178299
-0.6287392783293366
-0.18980111111111023
-0.32125051940753413
-0.7027174572934709
-0.8015870993334162
-0.6954627444155963
-0.604089163050217
-0.26398064200592225
-0.5448153885897357
-0.7404237527649147
-0.6966207381979092
-0.6239650382292766
-0.5001254195081621
-0.6882534953485542
-0.7283030544321057
-0.5764459706613716
-0.6968253733553772
-0.8059070848881862
-0.7068188420660907
-0.8650563806437847
-0.838204695607235
-0.9250433333333337
-0.378542
-0.23199875820640456
-0.36431906117300555
-0.6472225238440665
-0.6851849787212138
-0.6372588015707576
-0.4820176149903525
-0.3536320051584101
-0.28194547309027723
-0.33127786541206583
-0.5520507695859626
-0.6146684864978058
-0.5924792876657345
-0.32959635619974903
-0.28316860439484687
-0.3629181500000003
-0.41203181512639975
-0.47570779166245486
-0.4168848
-0.47359418821158467
-0.40186331174111056
-0.37279474643521376
-0.28297328888888834
-0.44078645663418614
-0.32139570641317067
-0.3900039680000002
-0.43656678889812217
-0.45322635902703295
-0.4474821923739844
-0.4330444444444452
-0.39775872982021093
-0.5030455028649018
-0.47908558455130096
-0.45548473333333334
-0.5479312532291741
-0.5768397289049613
-0.536584224650113
-0.5844026762922669
-0.5140702861748297
-0.6349875665509273
-0.696063134059226
-0.40349433522922284
-0.3391920256776366
-0.5244342008141741
-0.7201932439040507
-0.6437571657367229
-0.6675689439999997
-0.6732240258287426
-0.506098000865096
-0.3839669979864429
-0.5893066104970685
-0.6036092199177786
-0.6570535555555549
-0.8081104143831369
-0.46212246281232777
-0.65924
-0.4770825545330604
-0.5848955232463914
-0.45143363099279393
-0.6798689247089608
-0.32409819954254265
-0.5255780378647757
-0.5968516562376979
-0.44187722911657973
-0.5703753617707236
-0.36512941115342307
-0.6700780896873719
-0.4923408271560365
-0.4424591796875
-0.5795381081628185
-0.6087927946109376
-0.41439277433353994
-0.652964988567742
-0.5250924
-0.6156671233725977
-0.34760600000000025
-0.3609432655730085
-0.6277280101759605
-0.6729300444536466
-0.6577172032267545
-0.6752224414776298
-0.45441322008679386
-0.6115787876172353
-0.7624040538032609
-0.635917166521505
-0.6407372725356479
-0.6088819590824549
-0.7806200218931082
-0.8033076837569663
-0.647615199945691
-0.6683274224013226
-0.8689563504192749
-0.8247777672298001
-0.9304988044309427
-0.7003590282170541
-0.775376
-0.46786074416201723
-0.36794891020315396
-0.43254263438267576
-0.5598921553218427
-0.5808354966131888
-0.6696446004662527
-0.4630268157438693
-0.3680877856055698
-0.409489752604167
-0.3961536478076157
-0.4620652082953303
-0.6238914231497404
-0.5154339350518604
-0.34193429353171995
-0.4096673866501348
-0.3313632211832998
-0.38744810074973307
-0.4854318468691882
-0.43865333333333373
-0.463271990720956
-0.3579262449540075
-0.3587069813836916
-0.39842282666666695
-0.358470640034188
-0.38814929778879953
-0.4397237544947305
-0.4114397116815473
-0.419847135912045
-0.4562519351478704
-0.5107493945029965
-0.48454770787068385
-0.5113523873061455
-0.4510201527048198
-0.49289495746527817
-0.5969970396325834
-0.4829453291984543
-0.5519726758071922
-0.5706329995536267
-0.536837572019012
-0.6292154346269322
-0.605096754962691
-0.34484615286688897
-0.4749737156097656
-0.45522458049902775
-0.6007909468017804
-0.5605624536214067
-0.6263882666666661
-0.6662114105124877
-0.6019812831958996
-0.47932889397466566
-0.5070839762072548
-0.5063306951375671
-0.4852851353861003
-0.7244415974374866
-0.5572216941792522
-0.4929362754393361
-0.5591412656442394
-0.3851406173009461
-0.45497006821640823
-0.24408066866521075
-0.5765954140978952
-0.553316136714974
-0.490094714887694
-0.455867199693708
-0.624072544562967
-0.4852930822228378
-0.6006042493352186
-0.5828125399053465
-0.642434114595499
-0.5095574212991673
-0.5107669131576847
-0.683948785131225
-0.6871475155450303
-0.585199342914594
-0.7120549782289152
-0.5550954680356154
-0.67742405731725
-0.8187246302826002
-0.7140229197946995
-0.6466041270923746
-0.5519992188010665
-0.7167736501452159
-0.8160531608352177
-0.7576236019614607
-0.4905132106380731
-0.7067243278804175
-0.8354851128472228
-0.7791399578399155
-0.4981604089249005
-0.5973759950402973
-0.49350757863194866
-0.44018520812506806
-0.5698590004181506
-0.6152625301045167
-0.5771032139357751
-0.6439435694668703
-0.5148468665013431
-0.35913393460084975
-0.41771816695198294
-0.554955691696687
-0.5041736772060337
-0.6133002457059862
-0.480442317018408
-0.5088683986443473
-0.427123709538481
-0.29357849601490926
-0.4400086149276341
-0.5263207257009029
-0.4733197904525727
-0.506649268231205
-0.38435158874267056
-0.349384030137956
-0.4823912950058559
-0.4711361009487512
-0.5251654375031851
-0.466277762421988
-0.4287651664734648
-0.4946848832789077
-0.49709843905497325
-0.4725846848522422
-0.5254607467640928
-0.5108780856623271
-0.5039938277676547
-0.5188541308288345
-0.5550424002820774
-0.37818078343960915
-0.5296851404281732
-0.5409239234552587
-0.4837504600284146
-0.5281304695047732
-0.49756013069607213
-0.4597944753192322
-0.5908607739202315
-0.5304437779360492
-0.4940106282691303
-0.410869217996807
-0.4582133876090116
-0.5828842954560688
-0.6013743000520407
-0.5512791282175483
-0.47133702212928635
-0.2837662747675144
-0.491126439554269
-0.5704776208093311
-0.6066358309561246
-0.41803170018784175
-0.20054070835522533
-0.27083565370083246
-0.6276660759044647
-0.5594895081788581
-0.5252784649980157
-0.5872318457119238
-0.5727821258286192
-0.5566210022731972
-0.5483294134904623
-0.7327101318656037
-0.7318364915762873
-0.6332467722390374
-0.6890347688418917
-0.5721605080188815
-0.5970050611142352
-0.7270266622833357
-0.7108390055517918
-0.7091288117379627
-0.5430095467564564
-0.5281672621044818
-0.627455354662199
-0.726023970861749
-0.49682401960475864
-0.47553513988202445
-0.6625006041666666
-0.5505273558918323
-0.5442948470731711
-0.641449774746848
-0.5226299999999998
-0.45148760586820197
-0.5875364801328563
-0.6900540367023358
-0.6108755110835576
-0.6580062110441459
-0.5644575322036234
-0.40449670742141497
-0.39004574744848425
-0.5960173237488107
-0.6069623659764415
-0.58392204032547
-0.5471460662122581
-0.5964981935578101
-0.40929733567249005
-0.33580343489583336
-0.5118299005445751
-0.5071135727072197
-0.43479351394916316
-0.49926282404668915
-0.4762906996412979
-0.4054725482951021
-0.5010700313425643
-0.603682318346303
-0.5881710755679865
-0.5116657920000001
-0.49517711695837247
-0.49562054404726535
-0.44406090287997685
-0.39125124784735116
-0.5398835580905147
-0.5120546206792033
-0.45288356997297546
-0.38613312654748516
-0.43967225766677953
-0.44156684970595766
-0.48744425771187877
-0.40122806414863743
-0.2775181032868404
-0.37598792465613257
-0.5147633531453848
-0.5784175759454433
-0.6143072442809113
-0.5250333287132795
-0.30279809085611115
-0.19577700667079956
-0.4041935504140763
-0.6124502272308973
-0.5847591504098905
-0.22947279357994174
-0.19527515089464112
-0.6372203659375603
-0.5845067410352113
-0.13065172457974267
-0.4260926164177076
-0.6304817456912586
-0.5469801299980899
-0.5746153333333337
-0.5544228533039574
-0.6821388234653458
-0.650611108677531
-0.627960525422912
-0.7078717484091274
-0.6688613841702825
-0.5877415643699692
-0.58013500548911
-0.5201259472239611
-0.6674497333333341
-0.7184210836949781
-0.5140222848453443
-0.42732056659749085
-0.5329380787352758
-0.6738999667286624
-0.45739029529826475
-0.4321373176383713
-0.49055051969345703
-0.6705771937984494
-0.6940680000000001
-0.5453539999999999
-0.4845552714985435
-0.5700664952270499
-0.6802895586296634
-0.5611784344368668
-0.6145844639261221
-0.5264868099396992
-0.4427447933949202
-0.41844231770833384
-0.5575369029528278
-0.6305105521789209
-0.5229775374963468
-0.6027523470785637
-0.5603258390299234
-0.44626532961355686
-0.38354608854166666
-0.4730673311276417
-0.43674985010198836
-0.37057294172349625
-0.3917677159716266
-0.4371655640716105
-0.44666080843149397
-0.5297285066666665
-0.6180740620677628
-0.5956348224839845
-0.5349212800000002
-0.42457948723351707
-0.2973481440196882
-0.3228240331581756
-0.42524556244616685
-0.5489352874560859
-0.4006698084430002
-0.20205526890242967
-0.18376573693611267
-0.4162007155247729
-0.5131846951849552
-0.3741027397364332
-0.14644497843328885
-0.09320830045339594
-0.3689023016190252
-0.5211362719946845
-0.5568870870466516
-0.41630850703591077
-0.08227263202231859
-0.16616712868569714
-0.6859577751996174
-0.45006418120930175
-0.10181548759104551
-0.7339930430254188
-0.3476436303056603
-0.607305698151271
-0.579395555555556
-0.6416981667135793
-0.6695498677128775
-0.5497616450629667
-0.45073295676692554
-0.6543428931597445
-0.7363112206378716
-0.7105941582006774
-0.5751739961844288
-0.35678996362006005
-0.45530064
-0.8137713980161189
-0.6221835846179006
-0.4103067303438059
-0.3203067791234853
-0.7154525222153328
-0.5346817170048653
-0.3367510095989293
-0.5022634721309444
-0.6234925281653744
-0.5608099999999991
-0.5074668981194465
-0.4786242982619305
-0.6068536885171253
-0.6503884025281952
-0.48974179204716206
-0.43502248784004666
-0.473645200646816
-0.38352071744014354
-0.4002162427662039
-0.5509795234801137
-0.5884716796466819
-0.4653276312232571
-0.5934797181368726
-0.522107035982641
-0.42374550148102214
-0.30338539210602294
-0.3796595739266326
-0.382775007062289
-0.41963109974160157
-0.3004863848514852
-0.25814806629280235
-0.33759103987838124
-0.5083942666666661
-0.5646231495353099
-0.5820552290418127
-0.417376498400497
-0.1990093578071139
-0.1117748065599087
-0.33526753078134397
-0.4793633333333332
-0.46152861928480277
-0.18253127614863782
-0.017317369311863656
-0.1966829066715112
-0.43368081054828783
-0.19031334728526192
-0.04937942645087947
-0.20280796178290308
-0.4520284809027783
-0.6275937993387071
-0.30751685645891325
-0.12057638911161465
-0.7563246666666669
-0.3449717188213964
-0.6669497272163668
-0.520764390025488
-0.6566057793531956
-0.7040406009958153
-0.5705679501712629
-0.29246676936256866
-0.4336210601363918
-0.6358136189381576
-0.710120915685263
-0.617675849039326
-0.3956105118845874
-0.23215294862574834
-0.6635314984375388
-0.5868995303243097
-0.4808023109867576
-0.26959298320328695
-0.561947003049336
-0.4949488876763564
-0.3786076796874999
-0.4287014820096302
-0.4834877510346874
-0.4036732238065723
-0.5000437278363298
-0.38539367154006027
-0.5548855986497857
-0.6340060457275419
-0.5225989612244325
-0.26347449378048404
-0.4527239064499104
-0.35414054154071734
-0.2682604203503877
-0.47450892761617075
-0.5561823828394293
-0.4984069918917609
-0.5495464966770686
-0.4587999635461871
-0.25986770941211407
-0.22327449679524433
-0.38080886976337885
-0.4279172324108647
-0.509254
-0.3672216900068894
-0.19167738330911888
-0.2013090429453959
-0.34805718564441784
-0.515661198173243
-0.47099884219800797
-0.240208049448233
-0.10173817654891265
-0.1782576034395884
-0.4494659456878915
-0.2841334139987061
-0.1312470778054862
-0.13005445457998552
-0.3951747526041666
-0.18656570761529476
-0.25495372706840946
-0.4987406336019839
-0.6626876799999998
-0.3661969848951811
-0.6862461388716676
-0.49142058793139065
-0.5171666415518773
-0.5979392859825974
-0.617884198727737
-0.3650518417583661
-0.19597821813414826
-0.47630447068962195
-0.5193857441353962
-0.508318314394509
-0.5294147103232624
-0.22945837354825296
-0.41825287412621925
-0.4166889860027237
-0.4558795699397072
-0.39818387910725356
-0.3885292234021031
-0.39578579900019156
-0.3972725173611112
-0.35379725136973333
-0.41198945372530343
-0.3719166460012399
-0.5097021688365365
-0.35933304505415387
-0.3658576471170469
-0.511162231883383
-0.5985537182393054
-0.3196780393077983
-0.4386433423716542
-0.4422047959314294
-0.24992921226783701
-0.271858271549048
-0.4852991783426324
-0.5599876982145611
-0.49716251821933444
-0.301201860260206
-0.21682585291392142
-0.31565300211309455
-0.4733004666100999
-0.5104697168836534
-0.502014845249856
-0.3103043553275049
-0.2577793222531805
-0.2407461612316594
-0.42883974157255006
-0.3163261526241055
-0.2668940584831582
-0.2250982305439039
-0.39583584292069224
-0.30570848301495435
-0.30917021702897673
-0.3951205087205407
-0.41367148523159125
-0.5422692436040498
-0.6570808695244144
-0.4795563246538536
-0.395025801511838
-0.35961539347859617
-0.5152374931688564
-0.5564127334614993
-0.2040007939149598
-0.36379331311268975
-0.34020801839965364
-0.303207881041427
-0.5334360098039556
-0.4207031199999998
-0.2576755436470974
-0.30924746517441726
-0.36152831215428366
-0.47841266377350694
-0.3085521020735211
-0.37989566949985565
-0.3880468365160244
-0.3675462297567
-0.43619364620330175
-0.46302719363504913
-0.4212554894056853
-0.43831439256453736
-0.31060657265910496
-0.28826523454209146
-0.5564027107253563
-0.502819351891079
-0.4519618082248403
-0.5238840577097151
-0.4274956749522125
-0.25675771223414573
-0.3548072331077056
-0.5304905105097084
-0.4513066697862475
-0.2677020407907848
-0.42824414744801403
-0.4679712619420215
-0.5575050408091247
-0.4692123002611159
-0.4120448050940109
-0.39939236619136387
-0.3538546191830681
-0.39781471786482486
-0.44598286880413346
-0.4009041846054225
-0.5165302407997031
-0.4888241758214508
-0.606212412390698
-0.37561835452196407
-0.36596418618522564
-0.26572885437734944
-0.32698451748109747
-0.5923410778294573
-0.3978795957842528
-0.3070938279318613
-0.26894947981642786
-0.23846810457178338
-0.44360897824098156
-0.5095321333333335
-0.2804943409949198
-0.30939499024142053
-0.34518211543057215
-0.4912799706962198
-0.3784145178797594
-0.44281251577523745
-0.4094322444590824
-0.4559060455501553
-0.5146041096199071
-0.5651585829457361
-0.36623200000000006
-0.47592755335437437
-0.4405605326731863
-0.25603150694180327
-0.45578222161190335
-0.5400421783256518
-0.5717769866699732
-0.5604877124205961
-0.4964053071689029
-0.3430235776698085
-0.5028008232623258
-0.4373417451037715
-0.4845038188901913
-0.6031367789027887
-0.5725015156249998
-0.5144567377557346
-0.6124483724788976
-0.46745786926508354
-0.6232546047017846
-0.5494984799999998
-0.607495905765654
-0.3227866666666666
-0.36611329791106934
-0.34478615502326515
-0.29077912079687773
-0.5518502593385671
-0.4634851911551974
-0.35008999173382893
-0.30303486678768343
-0.31670453208838106
-0.4248958807037972
-0.5368788149617687
-0.4508397489150652
-0.3788658027794656
-0.3920840072813203
-0.5193058050628245
-0.5861933519322181
-0.49712434460422855
-0.4265360846846586
-0.5200148607570452
-0.6772760888888885
-0.6834
-0.5016312063157455
-0.5198652284561157
-0.4309994570329307
-0.44592179839137697
-0.5465930590764309
-0.5925317968749999
-0.6392125096634831
-0.4985265108995846
-0.5195916889933673
-0.5139260166917642
-0.6720393786828697
-0.6237772742302131
-0.6727365333333336
-0.6565511276270055
-0.6848461892953093
-0.4222011513059152
-0.4254503389892969
-0.3910369357111614
-0.5726351782717741
-0.4901989763016364