<?xml version="1.0" encoding="UTF-8"?>
<VTKFile type="UnstructuredGrid" version="0.1" byte_order="LittleEndian">
<UnstructuredGrid>
<Piece NumberOfPoints="1536" NumberOfCells="6750">
<PointData>
<DataArray type="Float64" Name="f" Format="ascii">
-0.5877322592845191
-0.47211
-0.6321959252282784
-0.6428255748444834
-0.6079214638229276
-0.80360804263438
-0.6758362685569814
-0.6842439843749999
-0.8580289681034658
-0.6597509719145972
-0.6789774550526969
-0.8355942539187725
-0.5801445416330832
-0.6173952
-0.7439020755078843
-0.4494514062492972
-0.5138943335399876
-0.5615967596385367
-0.7398821182874576
-0.6946227009712748
-0.6625526927814673
-0.8531959269684841
-0.6723806974581534
-0.6484723399842104
-0.8765857520459721
-0.6263696465180678
-0.7839913014653092
-0.8368486400166512
-0.5644582141351516
-0.7900941791681747
-0.7431742938058236
-0.4347216663559803
-0.7617438524400783
-0.5426388942502565
-0.6724672360405047
-0.504048871474242
-0.7870522771103122
-0.7154644172349658
-0.6838197327569794
-0.7029234283538095
-0.8085404059921165
-0.6654647411534214
-0.8352872792633582
-0.4577764662120272
-0.766153958814556
-0.6624284408829146
-0.7140624240762441
-0.6232744070675761
-0.840037042208999
-0.5173737285863659
-0.6658627970708438
-0.5011522549849737
-0.7890556564904503
-0.5339925455365907
-0.5302900453994289
-0.6908951579894592
-0.571443787535519
-0.5028165888779632
-0.5630769415995039
-0.47816831006903376
-0.7473052266361419
-0.6947725625129157
-0.6534734510985903
-0.6485067612043762
-0.7157470717972975
-0.6142157504159986
-0.4646952325849638
-0.7211399378333639
-0.6755850957902392
-0.6054642875757476
-0.5645128359771179
-0.32219880347179175
-0.6967123437336054
-0.6625207788528127
-0.569989795577598
-0.660506118374757
-0.46641286861106124
-0.6484408221072863
-0.5907206583918772
-0.4075075631620661
-0.5949784246507729
-0.6095829419255989
-0.5965026989441037
-0.4459747804648216
-0.5025686852275796
-0.5548562825039555
-0.49183157915569525
-0.43650941427337386
-0.5067633897912792
-0.4502850817258051
-0.6570571141860119
-0.6380600000000005
-0.5642074708082755
-0.5982422519644536
-0.4729447916666673
-0.5665129244669697
-0.42946264729881894
-0.5633008137546055
-0.5822790184177579
-0.4454495494936977
-0.32669536098351803
-0.48924129329960847
-0.559640997531691
-0.6124765712424175
-0.42023866666666715
-0.41662916129481004
-0.40561333333333266
-0.48660304292236306
-0.5760477440451909
-0.6322130072444812
-0.3520899752014884
-0.6101929437152026
-0.6055966430504914
-0.48816618578348425
-0.45760605937096505
-0.5169211100088859
-0.5852899458374573
-0.490988535193529
-0.48825107429707276
-0.5470384722222218
-0.42580863585366274
-0.47251427627537274
-0.5424736856788589
-0.38448156880163875
-0.5113554666666664
-0.43249247985120887
-0.5156830289127247
-0.5389599999999999
-0.47251224614049225
-0.4510325367245733
-0.4076480234375
-0.48003703568461026
-0.4365234791729283
-0.38970999194048356
-0.4431308526011933
-0.3760676393196321
-0.34913969371309367
-0.38801839912240504
-0.4853837589594045
-0.4872024946389251
-0.35294288
-0.35711659453985506
-0.3976223226946354
-0.4084042374311812
-0.5613398361158505
-0.5191707785948024
-0.29108917916924987
-0.4581311465817753
-0.54026
-0.4036270639898963
-0.4551597534488458
-0.6219454321703775
-0.5105994441940664
-0.6569068419969674
-0.5067027883116447
-0.4353224351681113
-0.5133559750821028
-0.6218673895467789
-0.5015683087592592
-0.45235666098741106
-0.53424122765646
-0.6263845026041668
-0.3926823226902714
-0.5018597878989532
-0.603125505269684
-0.41887749656909795
-0.56419408
-0.499497304401736
-0.37872838969144546
-0.47462500309981387
-0.46691382947878773
-0.3167796761032895
-0.48942452536654285
-0.3688830925811129
-0.3268466355634325
-0.4651615380154173
-0.3550285050059631
-0.32251189728219515
-0.39052134138516226
-0.36257324835709875
-0.4204265217086542
-0.33891303589713845
-0.3406493285805414
-0.33872834469931773
-0.3742648687906048
-0.4225049376937396
-0.5117475462598721
-0.4067615483051235
-0.26618703519220954
-0.46913866848533653
-0.4340203881998723
-0.3950968081795961
-0.4953833220623079
-0.5737129363091552
-0.37891444218824183
-0.5424714832069236
-0.5763121595370944
-0.5058460474025778
-0.4484171252428801
-0.5422154657153908
-0.6153003901535632
-0.5788539062936292
-0.5006367089067484
-0.5619034257628589
-0.5826625761372827
-0.6109177259369911
-0.4822887025542994
-0.5502029550044761
-0.5937871405026981
-0.599049386394238
-0.47193598215034877
-0.5674827503569143
-0.5888932169013338
-0.516467267585245
-0.5809969508162842
-0.5688274219880142
-0.3371094083188973
-0.45749263380863814
-0.5562952926267472
-0.2735877830130194
-0.2813550607447412
-0.6396163783355283
-0.31638871359617676
-0.578016597432682
-0.26326361527652037
-0.28167773300268667
-0.34784118804078895
-0.4174229787559409
-0.3265454901031975
-0.3407797739766838
-0.3106810895172564
-0.3119849585410501
-0.2885528932590348
-0.4152599378567683
-0.4658627776486189
-0.37866616863232655
-0.3494291310188053
-0.42857339491630503
-0.4455897651363164
-0.4708306867979862
-0.5352249075129266
-0.4631723726555071
-0.27748779632329373
-0.5412242253498566
-0.5125389237340178
-0.5209945296933651
-0.5228075931897286
-0.5522114016119032
-0.47838169628459176
-0.5434020595053793
-0.5475362068609219
-0.6017713844991003
-0.5886234659555981
-0.547854682632181
-0.5774010888834996
-0.5532829823447158
-0.6044867399049386
-0.6578452998930723
-0.5222464051524062
-0.5273106099931342
-0.5500512290202036
-0.628570417119239
-0.5156203946805663
-0.49813451181965623
-0.5552224791110715
-0.5240058200234329
-0.48493713657483367
-0.5417767602273756
-0.47875926286422915
-0.493656418726388
-0.31122685285709173
-0.513736
-0.6840933031186064
-0.2981914370679046
-0.7627022473958333
-0.26876747545494784
-0.26673848481091145
-0.23333454579773452
-0.3464948391729783
-0.6775353180409177
-0.3414637758231953
-0.52621288
-0.26903572825403993
-0.3189614754334407
-0.3137408713921612
-0.29253208669122005
-0.38845224674519535
-0.32095742165968755
-0.42669937834925215
-0.42539472274001144
-0.3627233712199489
-0.29009417968285367
-0.3396192311985757
-0.4962386578464499
-0.5785908335423199
-0.4730759437203642
-0.43202532858028514
-0.5228890230899951
-0.5046788282831804
-0.5749238066101742
-0.6217109799217383
-0.5046099051704899
-0.3585923205803823
-0.5205811918963289
-0.505322173091892
-0.5835143990655353
-0.6207602227493001
-0.5910394933112907
-0.49317210356722657
-0.45050811835639054
-0.5175419999999998
-0.5050239187478306
-0.6455364468569266
-0.6245036378590622
-0.5586702038053515
-0.594964422332139
-0.630045268121513
-0.5298368769112597
-0.3656740211002359
-0.4385407378014756
-0.5660471540167479
-0.5320496619886691
-0.3282591433958855
-0.3648865026041666
-0.5203143021626859
-0.3488456788591456
-0.3112016534407936
-0.4292024872129074
-0.28008864000000017
-0.30166898822070676
-0.3323208963977921
-0.6767433333333341
-0.7939153977307959
-0.24783803381244326
-0.34759366979873724
-0.8003245486111114
-0.39690185918889065
-0.688544909072122
-0.21690583943788366
-0.3399448674725418
-0.3581593932630716
-0.33604735232347793
-0.2478181340907204
-0.40905636737201573
-0.548582533333333
-0.4036826047045691
-0.42397840256251296
-0.2862587353273398
-0.37021765401632584
-0.4490418876479863
-0.4061588888888883
-0.4123519749203029
-0.31921960695989227
-0.40327004293892993
-0.5810650777644321
-0.5461985926660732
-0.4047313969828475
-0.3888383641620426
-0.4029548521551936
-0.6293562488650362
-0.6932850998263883
-0.482048239586545
-0.4937071888584906
-0.5115348278665831
-0.45337113792508416
-0.5572278297131169
-0.7191882358614037
-0.588955081049804
-0.40258909616615574
-0.5015381701696738
-0.42605014306236216
-0.4530520284124298
-0.598786662235323
-0.6726593333333324
-0.5135661878314334
-0.3825571854465099
-0.4388299999999995
-0.3377891213938049
-0.4987719727593218
-0.5945245183219677
-0.6082530026865054
-0.5695838015393885
-0.5125812218348483
-0.32778934894079725
-0.24334776819429185
-0.33196942815218916
-0.498300056517989
-0.3668898628931832
-0.1749320441039082
-0.22506494357638832
-0.4311229965831495
-0.19720527063880844
-0.15936276813391145
-0.30664160061203743
-0.15091679999999968
-0.2099460839016325
-0.55016810748066
-0.787054075222153
-0.7990829934650282
-0.7756766346963057
-0.703925601363918
-0.6722252654410578
-0.7666000065345484
-0.5559565271750354
-0.5696147159345608
-0.6590665804301822
-0.48401460878553
-0.5846869265769536
-0.6107151608685977
-0.45384
-0.6022164647529293
-0.612196862380392
-0.22538049142384778
-0.5221998062972589
-0.7270072768080101
-0.36065718641560185
-0.18154694376118521
-0.5240784963643272
-0.5858116214160451
-0.5278084995203797
-0.4324305418474899
-0.22487064837372786
-0.32987813201761074
-0.48103240719807844
-0.499637333333333
-0.488680422112374
-0.32725498174590845
-0.31636319964640697
-0.5010545672157124
-0.3512712086494489
-0.45751934097643665
-0.41225503605703634
-0.3437798692886655
-0.5099144120986517
-0.6338176842953677
-0.40809466666666633
-0.5043404287079287
-0.3620101637934805
-0.5042543313712003
-0.7602202777777767
-0.5458654533242394
-0.3695553609614577
-0.4143554082528426
-0.4592155262944981
-0.7714305968175239
-0.6681284782986107
-0.364024778330786
-0.46600590085181803
-0.5298237460219052
-0.38416716616823693
-0.40564915932343903
-0.6904561016738989
-0.7011127199999995
-0.4166997852937726
-0.520376260359188
-0.4408770839745231
-0.3328380943683753
-0.4693212505066762
-0.6541170666666662
-0.5918132076875384
-0.3716814701781193
-0.3602843934697254
-0.30949782893197336
-0.36746445451785986
-0.5001938413336547
-0.6070517838396361
-0.5136937289469552
-0.4198307544791515
-0.2758496888089083
-0.1928875425629242
-0.2654065989418775
-0.455668715204638
-0.3358822592519106
-0.13520090632135404
-0.17337800321121352
-0.4357104148741356
-0.20485475641253628
-0.1482313182876724
-0.3248267430753184
-0.19406607480884408
-0.28458364951308046
-0.3870751849555711
-0.696343476909909
-0.6028801653718484
-0.5948390534666564
-0.6747916167174748
-0.5583634842030571
-0.593901299965845
-0.5957927080442466
-0.6098345619858955
-0.5067465891373661
-0.6408278068516876
-0.6664947916666666
-0.7512926344883138
-0.520382955856193
-0.6224873114279819
-0.28882306199628033
-0.3008161544061361
-0.6420362882847358
-0.5006017996774502
-0.5225973949587557
-0.23266780894817465
-0.32674618642107583
-0.5959014506003709
-0.3700704102913825
-0.4856414288780437
-0.33010144950608605
-0.4315103521251639
-0.25363752768037057
-0.46736920167105295
-0.6236737717848041
-0.5179612000000001
-0.6884141827553182
-0.4053390374981152
-0.339990961074369
-0.5018418997313496
-0.401925236999511
-0.516521199910949
-0.4257082058276503
-0.3442958330307342
-0.7074697834659709
-0.6952678507285017
-0.28941144279120945
-0.5010318950648578
-0.3026676168038324
-0.6539884592989084
-0.8177056718750001
-0.40753918712891646
-0.3100283761285744
-0.32791708690108284
-0.5735380474615949
-0.8109999569745816
-0.5431529257530845
-0.2861032853354286
-0.5151249231246124
-0.6529658166287803
-0.4662801939660232
-0.3372605263657152
-0.610902351072694
-0.7391564000000002
-0.4989150476571034
-0.514699246693711
-0.5515615514261297
-0.39809768104447585
-0.4229941565288248
-0.6081872050836945
-0.6369254683199009
-0.3578701616972213
-0.36174084314941096
-0.38709506368252095
-0.4079259546324057
-0.4772723077262609
-0.5855487924367779
-0.5062926433879946
-0.45992926951022944
-0.3535251076026427
-0.18371032047609628
-0.30031833236233124
-0.5010423291241458
-0.4416876236550245
-0.16880555343108783
-0.2598485765234294
-0.5275342963778789
-0.2863991979670455
-0.2900220584571498
-0.39469976261261014
-0.3630120789832611
-0.41976029941359133
-0.32111250671626423
-0.5131481346897858
-0.6174055374018743
-0.519926943400497
-0.4231561404855692
-0.5316464173888947
-0.5621555883880803
-0.5810786647801853
-0.393384745556773
-0.43889304965503223
-0.6332426197778696
-0.653197492250465
-0.29333293831491775
-0.48888726309720515
-0.790874637356323
-0.6899981811544212
-0.3060202444229777
-0.4178836608803472
-0.4302502438520363
-0.24992905836610232
-0.5271123636236795
-0.5655096830699141
-0.43073665013432555
-0.6335761889508852
-0.3555305029891074
-0.3011542974145083
-0.5799987380146638
-0.43171093739965244
-0.3794652936905623
-0.365443505345711
-0.5329857177143537
-0.43037702956623036
-0.3201017637355132
-0.6116287850399629
-0.6483235850382315
-0.38770512895226217
-0.7696294421035624
-0.5393920063344381
-0.32169868189502354
-0.5155352655094029
-0.4456810530363295
-0.5332787868305501
-0.3386508489357301
-0.4285417974649603
-0.8113578845798238
-0.5696960902710141
-0.20065136632913147
-0.38104705524331045
-0.35913911024316314
-0.7592406895432807
-0.7247662901977526
-0.31677988465365226
-0.3917414131018799
-0.36383885826015544
-0.6848753882455049
-0.7732436007173066
-0.49175520861721306
-0.3890062350748728
-0.7242346755528013
-0.7207869327117208
-0.6747331074970174
-0.43092121539725
-0.5977066641524577
-0.7343533890142594
-0.5951795783076818
-0.45103598128668726
-0.5823127660248987
-0.5666169721046347
-0.48737225809170676
-0.6115608617345173
-0.6453017388069425
-0.31561358030929293
-0.4097164135151893
-0.408086734593881
-0.5385064165864973
-0.5086976977226704
-0.5975139289364269
-0.5094619448485502
-0.5657040439760285
-0.38438779679782203
-0.19418203234359144
-0.3940988848031038
-0.5674484643160099
-0.4696330754364341
-0.21003764353793974
-0.3973026115933051
-0.5145393896614464
-0.32550441795634816
-0.44919467843449407
-0.4019658746488422
-0.5069740400082666
-0.508557229310135
-0.3781839009437215
-0.4026023068832973
-0.5462248413524636
-0.5350041507589863
-0.5099642252816533
-0.3968986656168681
-0.4087683697634603
-0.43400811040158566
-0.604758619185112
-0.5952424000000001
-0.3707367019522745
-0.28416666227847553
-0.46694790582604656
-0.766427447289292
-0.27381500275731174
-0.27555149136181706
-0.6827570091153917
-0.4360530273163397
-0.2493197191469186
-0.307591262657574
-0.5390439999999997
-0.33152615066992014
-0.47768915744903834
-0.5564190358242039
-0.4393712722979719
-0.4271692284381902
-0.6509144490597233
-0.47657483592700506
-0.37645194480232314
-0.5556877411861656
-0.449280207716186
-0.3872705657177136
-0.3562816299441885
-0.5366656847463402
-0.4677858521953942
-0.4246511380208328
-0.663459244005839
-0.5534232985533646
-0.2900904242612112
-0.6417793181634068
-0.636461262028194
-0.37327606509609373
-0.5261306153613016
-0.4673277211517369
-0.5306149052287978
-0.36891986666666576
-0.5719482547272657
-0.7153878611007016
-0.4563266882391866
-0.31041933333333327
-0.4020886761727623
-0.534727223591652
-0.747279283054326
-0.644711052651633
-0.4159054613842555
-0.6577399965557632
-0.5087486175504697
-0.7261594163499052
-0.740950776343583
-0.5647902708333324
-0.6370508949557113
-0.8821410247201035
-0.6039861855555447
-0.77597199669747
-0.6122787477764947
-0.6374671620169446
-0.7268453076420749
-0.6393017931578481
-0.40212385792090105
-0.463198038700441
-0.6375045798509048
-0.6038910083037105
-0.616467493333333
-0.6602003963030539
-0.3121938070967268
-0.4387239948320412
-0.3289107527822825
-0.5821146679144035
-0.5591035140318253
-0.5792116792725767
-0.4927445446771023
-0.5605512309034615
-0.3017994670333275
-0.2546012464870284
-0.48134065769250883
-0.5140973240246529
-0.3452490371774993
-0.27348114342960456
-0.4971907342754089
-0.3729058322941586
-0.33780373856099355
-0.5023851303914737
-0.36589132419734677
-0.4967054187493541
-0.4723160690693031
-0.46440888888888837
-0.41700543409303475
-0.46962834858272356
-0.42872850958770736
-0.5290872508706257
-0.5018996714197148
-0.44406305917200495
-0.4251893724212443
-0.29803011881265373
-0.4561207918700441
-0.6836574365759392
-0.42747022008679453
-0.3180250525694437
-0.2589156136084429
-0.6627823492701835
-0.34540343046083827
-0.28033458220140073
-0.4329408478838926
-0.3693596799828818
-0.33472683962101574
-0.4027633333333326
-0.5755412
-0.42795206453523993
-0.4976342808435969
-0.4811518770339127
-0.35301830949426266
-0.4410166514184181
-0.6206641668573488
-0.508686111476223
-0.466202414641204
-0.5615423966839654
-0.4029942927645766
-0.31705763954202976
-0.3332655377710014
-0.568423850772268
-0.5378851064269483
-0.4942413651041666
-0.5765845832192601
-0.49522542136971764
-0.39673120000000006
-0.53067123463519
-0.5840293131746734
-0.492411659888407
-0.6156128888888897
-0.5376699798849572
-0.6355611689743065
-0.522429936
-0.622247137684422
-0.6167824821468474
-0.5519580061752123
-0.5661733333333349
-0.5308157802851828
-0.6391695488575411
-0.705799589972166
-0.7055827817708331
-0.6282129769015102
-0.8842304146819581
-0.5959883394113081
-0.722562996105573
-0.7639624915065099
-0.6979494618055554
-0.8113849946926249
-0.7956781694579727
-0.4580520603304465
-0.6566926878097727
-0.7283607108938953
-0.7206063518633319
-0.7254581600000001
-0.6674565141431853
-0.43204730501526506
-0.3675106018979573
-0.5371622684257477
-0.6657471423706505
-0.6490807999999997
-0.6585634159950403
-0.3969933484109383
-0.4374799999999999
-0.30160687098938427
-0.47133047018823343
-0.5543820336178799
-0.5464129544671756
-0.4351005973153394
-0.4108251823487788
-0.2698134161412567
-0.3890557791133305
-0.5442814043028087
-0.3697116582384257
-0.2576764573470456
-0.3808124003000834
-0.5997683463541668
-0.26053773761608384
-0.3539028687796932
-0.5853835120892746
-0.31931290730235506
-0.53191
-0.4673591878487291
-0.5179393333333333
-0.46944018335282084
-0.4621548827810377
-0.2955883435434405
-0.41193508464640854
-0.532175587615304
-0.4873359987600745
-0.5034564263972233
-0.3081952083687165
-0.2895374033833342
-0.5952005612316601
-0.4375235083694979
-0.44600153548346627
-0.26715360689311546
-0.47896445310383046
-0.3587401299855339
-0.43995003099273405
-0.38763246564103776
-0.513178366916733
-0.4075665188630487
-0.5307000000000001
-0.6046812698904737
-0.441253921631843
-0.5403147785130861
-0.4443746463883176
-0.2690606905131337
-0.3720184514930755
-0.6467450956113358
-0.48885347051594313
-0.48421784895833353
-0.6192522807242984
-0.406179656399063
-0.27545480843632847
-0.3912641599213706
-0.6966915838534128
-0.5820493356065307
-0.494447919937347
-0.5449711292066878
-0.5755814858441833
-0.5751886666666673
-0.6370066386397663
-0.5469877477833028
-0.557054837107304
-0.6941993333333341
-0.7181282358626843
-0.7210494965902053
-0.6013463788634019
-0.619185808536329
-0.6990521230914074
-0.7134713502387009
-0.7490657222566649
-0.5844282038182483
-0.6530704108089668
-0.742543815258387
-0.8212072725694451
-0.7710669043558886
-0.8519788241154379
-0.6370198803625903
-0.7352200189460626
-0.8624244538127716
-0.7759467438543671
-0.7443317423449506
-0.6291051899137335
-0.4637877653417825
-0.5361794333784325
-0.6576397581965012
-0.7541435762533103
-0.8113822133333338
-0.6892556280260341
-0.5217068648603967
-0.4185418186164937
-0.46956044079389175
-0.5796069452827619
-0.6465675074464414
-0.6949204224013227
-0.5365129066027158
-0.4112941196899323
-0.41420806428129153
-0.44809110776360234
-0.5109136412076205
-0.34434898442663314
-0.34196845380982466
-0.3891560375267555
-0.5694849088291403
-0.2987072838388677
-0.3226975178718208
-0.5493568769751489
-0.25614741372399624
-0.47041205497344313
-0.375159498257558
-0.5848869577047602
-0.46550473930057384
-0.527614362781028
-0.28618218536959367
-0.3311392349333238
-0.47083019453174646
-0.5516798960094295
-0.4994320186006907
-0.4466324596073415
-0.29814333973513113
-0.5034586316181029
-0.4532771884417874
-0.48556835658887637
-0.4506501935467799
-0.43825082603797677
-0.3703999567330705
-0.5419762076862013
-0.5339328819444437
-0.62884965999132
-0.43262786524379576
-0.5566047840462904
-0.6814896528208304
-0.46240602696713745
-0.5278369570847966
-0.5167523627667682
-0.2992637468464557
-0.3650224706758771
-0.7074711380450501
-0.5558275313254567
-0.48558591174983823
-0.6346841780824253
-0.5409161623475912
-0.33117149757477427
-0.5727158864122821
-0.764450717503617
-0.5709631126419286
-0.5419739969322065
-0.6508203277297983
-0.6461072249776131
-0.651812750568299
-0.768913566592389
-0.6335256196401744
-0.5783165976408106
-0.6460080259006683
-0.8230292695956737
-0.6593311029192489
-0.5870711928662952
-0.6498825512514762
-0.842461395584523
-0.7697327447401335
-0.7205672473651586
-0.5928006008230041
-0.6554259530481512
-0.8749214307904013
-0.8481844546872849
-0.7187582084971281
-0.7134698620980992
-0.657080115027635
-0.8500448426947717
-0.8892951341210539
-0.6967937807801845
-0.6320380067133321
-0.5804595621220351
-0.6113451808224837
-0.5478713914076271
-0.5713317317064975
-0.643786074830881
-0.8554069991816496
-0.7481786739500879
-0.5719840258877869
-0.537504283055945
-0.5118675914848402
-0.5308537709030786
-0.7320909901652813
-0.5715468051667331
-0.519480779790498
-0.40679378799768773
-0.42837697444315653
-0.31141382982252086
-0.44899836402035714
-0.5541968235374979
-0.34637677477833645
-0.47883288712543864
-0.3602142162050765
-0.6591983567541498
-0.4734883587551592
-0.5444480378823102
-0.41976084899244287
-0.3731305681608676
-0.4655101843495713
-0.6064215825399312
-0.45882727471869517
-0.5420548302569296
-0.4547212191211257
-0.48549609150650946
-0.4964362760670398
-0.4579829715191141
-0.5965289723387704
-0.5311195360611691
-0.4245881034789318
-0.5396916404186244
-0.6420681848958335
-0.6168482070801833
-0.46212626919179994
-0.5376603254804713
-0.706454
-0.5620963019372381
-0.4991622159093509
-0.5717697886808933
-0.44504551669077536
-0.41547394767469287
-0.6805525745677478
-0.6369673602827208
-0.5455183750265492
-0.5671925484492734
-0.6412034216491006
-0.46910774649158454
-0.7092596036515922
-0.6483155597415956
-0.5427676940296303
-0.6090994864583336
-0.7142074318624428
-0.646553655912787
-0.6096798809671419
-0.7886242405443241
-0.7306668292279643
-0.5826579239925601
-0.535580668581663
-0.7106167489991178
-0.5675309990634154
-0.5558792799999998
-0.7325178096836352
-0.8882065262634348
-0.6871706711571082
-0.6423415127092377
-0.59129285133292
-0.7139443582833934
-0.9482565084257716
-0.7283418976246061
-0.6265524209539953
-0.6648019646568873
-0.6671802609459615
-0.9392361352932815
-0.7388456495226899
-0.582716512469755
-0.6268985601663654
-0.6595671605703658
-0.6350464792259033
-0.58571149663498
-0.5252601425850382
-0.7137819766893987
-0.8088612490004747
-0.6319849025253798
-0.5541003875492289
-0.44343906446235387
-0.6452658533782207
-0.6332917566423076
-0.48170747780802853
-0.36708580821911635
-0.3517246881409904
-0.5789418648481092
-0.4445989453521816
-0.6354079999999999
-0.5230517479295161
-0.4971974201932272
-0.5454614310118745
-0.48611658178811307
-0.4668956337476539
-0.5767717875594134
-0.44345957625345084
-0.5415033940123185
-0.6066349187042612
-0.5177121333333331
-0.5048865127092376
-0.43115859586350075
-0.625961333345387
-0.6238219218846871
-0.45506464269477137
-0.5027525463758705
-0.634573098184725
-0.5461215351825853
-0.47589767503875957
-0.518414
-0.6146379999999995
-0.6074703702234069
-0.4915534529230053
-0.5214844979567755
-0.5703084933002688
-0.47444054603909946
-0.6446283937349723
-0.6005728695310725
-0.5797416640624996
-0.4610669202667205
-0.5604360154678981
-0.5986887790157385
-0.6431227201450697
-0.4595921298405406
-0.5061887575945438
-0.6108388038194442
-0.7326406615978079
-0.6249481891852559
-0.5585134207480883
-0.7070394260452066
-0.7994467564924411
-0.5986499158917131
-0.456544693333333
-0.5481003346321173
-0.5290606976648065
-0.5765490400000001
-0.8222132039677361
-0.7842893958169114
-0.5771419472195718
-0.6605021030146425
-0.5928378640214921
-0.7891915997244275
-0.8373887403070627
-0.56140710651386
-0.6224997474099146
-0.68177789005993
-0.6849579840334751
-0.8300868075684148
-0.5432097285047205
-0.5334082635663405
-0.64961870605139
-0.6098294858291137
-0.47218589656414656
-0.5337343922215325
-0.7276070975722871
-0.5932876648599467
-0.4223133541705428
-0.5164897898502898
-0.5428610292209128
-0.3404803430546277
-0.41338978184330183
-0.5289599999999993
-0.546405920841717
-0.4301657643628385
-0.5719968549777493
-0.6015150109602062
-0.45423910105393667
-0.5142387883171452
-0.4483241036572119
-0.4812969237106852
-0.6731839695619821
-0.5862708799999999
-0.5123437053110146
-0.40556019878978417
-0.5802060015783964
-0.64337753767789
-0.4866923351932219
-0.4525618927681739
-0.559896921438013
-0.46902973488746985
-0.4457648316968132
-0.4275533333333328
-0.5695861620169457
-0.5383962553991767
-0.48800398314637633
-0.40618945300497633
-0.5756258782775063
-0.5659089565212881
-0.6967319034184046
-0.5917895572829575
-0.5621047583912037
-0.3838226218891847
-0.40256368158891215
-0.6126673583223826
-0.5177331234709436
-0.357413218334367
-0.5272685268994975
-0.6494803534740519
-0.7604690053491798
-0.562736738337561
-0.5809540680103357
-0.5740177493647812
-0.8179096604919267
-0.668670509280672
-0.5004365777777781
-0.5120543940203761
-0.5817936226493081
-0.6406765365902043
-0.8304070352374565
-0.6042907800147889
-0.5503666900790029
-0.6673500000000003
-0.6027888352934739
-0.7637991860611507
-0.6329429664425225
-0.4691057459294255
-0.6006490716514769
-0.6254500107726911
-0.6208155811664114
-0.42285817027959266
-0.4917514192708339
-0.44045127092374514
-0.4168182776062021
-0.5620471106364678
-0.40297933333333386
-0.4075683544082886
-0.32118352758834495
-0.48745277192257314
-0.5412570863380618
-0.3896415776430757
-0.5162225692774
-0.6643733226852325
-0.516409156850589
-0.4707916500482729
-0.49777387380746657
-0.4061431750730289
-0.6537375167712544
-0.6291825426327754
-0.5086702036345273
-0.42687185324648813
-0.4923704820109281
-0.5814894614641686
-0.5479391570626237
-0.39102479924471994
-0.4452661171874999
-0.35167178271023153
-0.45999200709844074
-0.3485516718330236
-0.7066601295722258
-0.49864192753713193
-0.5280852325712607
-0.32077845568149965
-0.5148379046723478
-0.6355750381911579
-0.686725040693145
-0.7364203170631377
-0.5834736528823599
-0.44020104895254925
-0.33468187283323014
-0.5660658539017401
-0.5265060050365732
-0.43152801903974763
-0.6147926761087031
-0.7662136939062819
-0.7325441758902325
-0.514111188909875
-0.5841440000000001
-0.519092534345413
-0.7702875216321324
-0.7408307780512029
-0.6031809283736304
-0.614658901556339
-0.6406121003102977
-0.6488952501921884
-0.7558955818878661
-0.5212077696855614
-0.5250320807241613
-0.5370193528983549
-0.6449356032649279
-0.511009065990148
-0.43416225260416663
-0.48897437062148197
-0.4716338397893782
-0.3889264885306883
-0.35325047999999987
-0.420771951246761
-0.30308398636081835
-0.6121223413928493
-0.5187778640383828
-0.442197039867322
-0.4244374717992521
-0.6550765805961322
-0.5946490858412106
-0.4888288454989669
-0.5259132655980404
-0.38993769302755327
-0.542604342930293
-0.5723299992973763
-0.4671330360218375
-0.47970874594422125
-0.3912570967830351
-0.42774499008059524
-0.5304525033220989
-0.38695092322718216
-0.29752126736111034
-0.28190017484790925
-0.47537355995809283
-0.3648011655300682
-0.8066813190741887
-0.613175461958964
-0.5945072278408664
-0.3566655513979145
-0.4547383782021086
-0.623267989796802
-0.5856872564234498
-0.8825672986651427
-0.6698843749233115
-0.5823043156757829
-0.39155275982641063
-0.5503270545197004
-0.6170291205221012
-0.5749173061712832
-0.6656582245602253
-0.878815707791404
-0.6948434632253749
-0.5056600661293653
-0.5165641649951684
-0.7581635002737159
-0.7791565512443649
-0.597754484852242
-0.6941026472024879
-0.5481035586985882
-0.5980992831328785
-0.7083218733093966
-0.5286761152159439
-0.41525749154517505
-0.5487786081233862
-0.49321811491687745
-0.3762345247119813
-0.39520131890886573
-0.3022539512846836
-0.743292624164772
-0.5224637712206905
-0.5306781559782295
-0.36758782408024865
-0.5419766123576225
-0.5484881062320809
-0.5591000801644759
-0.4792633194072244
-0.42349155242818154
-0.3928915994683584
-0.39063248
-0.4363364609944232
-0.4481927445536111
-0.3454661721653141
-0.2523585441206854
-0.40719621209507323
-0.4047140165818532
-0.23035377682738337
-0.3294144133500604
-0.4007741214716984
-0.4053375315147759
-0.7337752824806206
-0.7909596493312151
-0.6270018112877086
-0.47986934230160355
-0.4086004912171936
-0.5165999467263883
-0.505437395122959
-0.9234270272085322
-0.7810682015347309
-0.642647610630942
-0.4905079966758253
-0.5336073036542095
-0.6399351447279503
-0.5966088458628979
-0.67369450685241
-0.958081294469746
-0.6430475567236743
-0.7338232253134244
-0.8175153012686649
-0.5198538752359295
-0.598371874597312
-0.3945571674855319
-0.5820675152289407
-0.6627444417733975
-0.3591987073450696
-0.47864064657987154
-0.31286981097027944
-0.7648827755383288
-0.5904388771990233
-0.5492595241745531
-0.3740710241888145
-0.3839518301050813
-0.3657906844389337
-0.6542044224143524
-0.4341145873231012
-0.42661048288250036
-0.31230752522964855
-0.22064866666666608
-0.4879238037976323
-0.3551725840862352
-0.37633778753069674
-0.20389361903830275
-0.36065190155118815
-0.39045824524562717
-0.3172145574046807
-0.42157756474794456
-0.36089901080709624
-0.4221308981912144
-0.593362
-0.911285205775698
-0.6313551849903796
-0.5622386806559009
-0.38285244630764653
-0.3950268663837588
-0.8158618629797258
-0.8894098910534186
-0.5853193647349516
-0.5377714364909411
-0.4746531347328385
-0.554134735328909
-0.4951094638621038
-0.7139046718621779
-0.8967417239583336
-0.7773097960322382
-0.5111027942532295
-0.4272965280440069
-0.34973236087559467
-0.5728003199999999
-0.38150381029138253
-0.7169433333333338
-0.7064060459933578
-0.5002325459241278
-0.4254470478640566
-0.2987900893119122
-0.2390549431700762
-0.7503655920644762
-0.48449180301921574
-0.40195020782854834
-0.3776596711260573
-0.21236703161810247
-0.6262548450092993
-0.37144670437980315
-0.4362597063255547
-0.3414555292533658
-0.47115914858441765
-0.4329862249630611
-0.4539173186850984
-0.49870869396588174
-0.4210808031007752
-0.41984
-0.882520873581747
-0.6677204371832718
-0.5269673304736854
-0.4142097907283715
-0.3385343767015736
-0.8852105121527777
-0.5347149670298972
-0.49061065121576836
-0.4182644792577745
-0.4339728372011154
-0.408438867447904
-0.7318923258937794
-0.5524046666666662
-0.32935205489865466
-0.4007164414135151
-0.7954382221773875
-0.48308072333536894
-0.46903171508537317
-0.3717413308485226
-0.2758383317888707
-0.6167871327075946