<?xml version="1.0" encoding="UTF-8"?>
<VTKFile type="UnstructuredGrid" version="0.1" byte_order="LittleEndian">
<UnstructuredGrid>
<Piece NumberOfPoints="1536" NumberOfCells="6750">
<PointData>
<DataArray type="Float64" Name="f" Format="ascii">
-0.5939135170603679
-0.49511
-0.6230763185912414
-0.531967926095852
-0.45995589993179986
-0.47356462301939134
-0.598360792870987
-0.39759067708333334
-0.3806347037976367
-0.5496870708273968
-0.36044181029138256
-0.32011594010112815
-0.5093190673610682
-0.3690752
-0.2979554956496582
-0.4788520374962757
-0.4101188592684438
-0.318035046253643
-0.6006570312024307
-0.6880270427774328
-0.6619419448196718
-0.628216945866063
-0.48772195184955575
-0.6020169040540296
-0.5534209392228105
-0.5506792512197151
-0.4383010814585279
-0.48845124491837827
-0.4974583682165739
-0.40486504407682516
-0.4756151109008984
-0.4052520452007852
-0.40677379729490387
-0.476658791347381
-0.38498207861128275
-0.3731629975534593
-0.6654478395158404
-0.7797444761314322
-0.7114126638266792
-0.4628137327097146
-0.6700956382934748
-0.6221468539470967
-0.4708113986372804
-0.49154886236825795
-0.5955671645042546
-0.555426456340859
-0.5330863891048435
-0.4727115836329822
-0.4419708368039432
-0.4937481787609637
-0.5114067346968073
-0.34121759564742304
-0.4711171545547846
-0.5562366997717118
-0.4658394980012313
-0.5252828411545137
-0.5740424493642596
-0.5495399795702001
-0.4672861706137634
-0.36264077121181776
-0.7924056963382037
-0.7784676296755523
-0.7692393827316854
-0.5113801626685965
-0.742343504791304
-0.7236730609533222
-0.3721159383702109
-0.5338883307269627
-0.6477795051712988
-0.6551949561189588
-0.38710245751759964
-0.5118903017152303
-0.5298669935088385
-0.5418948331683103
-0.5405264748088453
-0.4467040018236064
-0.40741898261144677
-0.5582689626506548
-0.43159426709413756
-0.5431158923740371
-0.3436065827521481
-0.6026527286839195
-0.49089831837076764
-0.6254183091133454
-0.5889481457114834
-0.506677456788316
-0.5927290846356198
-0.4897391685485983
-0.42355634552593463
-0.2912379107625105
-0.847347971186389
-0.6399833333333342
-0.6960650716101436
-0.8222732470402411
-0.6985047960069452
-0.6870045219867721
-0.37638430739207246
-0.6883586538988772
-0.7304488775116041
-0.6491307966522014
-0.43415247694984066
-0.40005903000176407
-0.6721456045151067
-0.5912171117577665
-0.5614177333333334
-0.44254209323348803
-0.4897266666666668
-0.4445350039397376
-0.6273721052892541
-0.45548060683495467
-0.4804473320934077
-0.34142014765034107
-0.5768834710272374
-0.5166089939822563
-0.4729199918852309
-0.526618112096224
-0.5002501118752881
-0.5827386445361591
-0.46256773031217335
-0.5605920312500003
-0.5830828299037158
-0.4123811932658732
-0.47426253978094685
-0.37940035175426784
-0.3367681333333337
-0.28490789005992967
-0.7001627826344549
-0.481962
-0.5393209551739101
-0.743848388492966
-0.5412789088541665
-0.7661337727217737
-0.7014826066435323
-0.5172708016119032
-0.7605148727709953
-0.553166740231358
-0.41444603124429763
-0.5884793257332394
-0.7161724094417887
-0.5955695467143264
-0.4969661600000001
-0.5180328799746486
-0.39892287605700116
-0.6229188989652887
-0.6267907420953519
-0.5080426793780699
-0.47423078735275886
-0.5245281396810574
-0.501596
-0.4049662129450311
-0.6373583933386748
-0.5514280219586832
-0.4433324387701581
-0.4717864602135738
-0.6477750907762373
-0.4407796918593619
-0.4994984403857144
-0.5674891322462646
-0.606911754189322
-0.5038995588853742
-0.41798859767210256
-0.5647364921874999
-0.5404500629177614
-0.35979677859480214
-0.4341710836949782
-0.36594729947280996
-0.31005416
-0.30607257780533165
-0.5660413232479797
-0.46845055176689443
-0.4858870018616441
-0.5967775611468281
-0.4673057720312824
-0.6151257046910533
-0.5729752473740356
-0.464937673212918
-0.6348510948975273
-0.6498525669137676
-0.5178183265864539
-0.47366104893573063
-0.6082188078901041
-0.6878548338292814
-0.5282900744839377
-0.5115951043604047
-0.5268552676694279
-0.7104512638183281
-0.5632748102854895
-0.4869015631338998
-0.4409859560982033
-0.5207070317647301
-0.4620055916644668
-0.5281162497508968
-0.6954144440264147
-0.5625783339946261
-0.45814469071933256
-0.5882636475309103
-0.530693117379624
-0.41991807122145564
-0.5614398033758756
-0.6801721564984184
-0.5396460305550218
-0.6235825204441613
-0.635784891490239
-0.41860293469537185
-0.5688180528682375
-0.6397354939734639
-0.6609804997708902
-0.4825202154439611
-0.459672638767982
-0.6515540187285814
-0.5516747492146464
-0.3959918848798238
-0.5114848268995061
-0.41288412502840804
-0.35972810018598905
-0.3299474338382848
-0.6526266290237903
-0.5867776296755522
-0.5715631118930801
-0.5320450351312259
-0.5985770555569556
-0.5200578168577678
-0.5343469453632141
-0.4978827787638587
-0.4981395433403742
-0.5176538189708626
-0.48694420732854704
-0.4829756305848318
-0.4490787374411796
-0.548374096155556
-0.6304050847186408
-0.4396417667005023
-0.42977349113750435
-0.4548011086725356
-0.5737370130776108
-0.6618232014144766
-0.5593842095474272
-0.5079177640008264
-0.5103618420746141
-0.6730850238448501
-0.6115257256303314
-0.525656911899152
-0.3653314345672816
-0.4904193265238342
-0.5125613113233404
-0.47166156877900706
-0.6923767286823668
-0.6690578615829721
-0.5537179901711741
-0.6365124658552328
-0.5365738716677
-0.4974326802030598
-0.5166810211856495
-0.7332233376867481
-0.6602830956982215
-0.7159036362090382
-0.6338725707790865
-0.48369173952517164
-0.6906156999691846
-0.6711065338473848
-0.702272408236473
-0.5280614831328782
-0.6010946082852054
-0.6990751624886445
-0.589549808723474
-0.5005180883072703
-0.5607042183427249
-0.4745966254858374
-0.38777680173589596
-0.34321743172626
-0.7996468176494184
-0.651116
-0.631134558993118
-0.7288403272439924
-0.5641348229166666
-0.7154023908771315
-0.45298527712337283
-0.5614716561851926
-0.6323677477049752
-0.4994034717916926
-0.5411535007294871
-0.45199111999999997
-0.43152014270591194
-0.40293597722992597
-0.5100922387545648
-0.42413912187191793
-0.41991509981401126
-0.4222533455838277
-0.36209329821340924
-0.5471446544862336
-0.6409289247089621
-0.2905430685630053
-0.463934863402733
-0.4388924166480575
-0.5834719869162032
-0.6471718184064078
-0.5351558890266583
-0.46793173842542846
-0.5169950583062158
-0.6218820626697014
-0.6568429144800677
-0.5896854853812773
-0.4493073105351553
-0.521197793364571
-0.5653146563686279
-0.5006446981951655
-0.6479586652156457
-0.74062105178756
-0.6628330335087397
-0.6960703270664778
-0.548606
-0.6392783473425897
-0.5421591719530059
-0.7269536922780196
-0.7383538620714515
-0.7458181795501445
-0.653309391717297
-0.6343004422902557
-0.7954122496559498
-0.6569020736561474
-0.7311444681937561
-0.629302653442224
-0.7031747989767448
-0.6810364583333336
-0.6569889192423287
-0.5399644273660994
-0.5732107011779294
-0.48376935121495745
-0.42584624
-0.38244142343459386
-0.8041819303531946
-0.5875799999999995
-0.571665147250294
-0.8979842821741874
-0.8060930626483295
-0.5201325781249996
-0.720644159313732
-0.4462826803058481
-0.7509147648280536
-0.6669089665697979
-0.37493627567679244
-0.5029654934908366
-0.6021177220779529
-0.5740352096705817
-0.40645186666666655
-0.4033084382896235
-0.41654291175862784
-0.5318463443010591
-0.35372152787949784
-0.35238343541080375
-0.5432711111111121
-0.26594730563797137
-0.4608773410009663
-0.388228586700653
-0.35496786201952896
-0.581844660549322
-0.5831820888613349
-0.34192091282428055
-0.5243784758442174
-0.48146664374072706
-0.5932777430555568
-0.6032563118249796
-0.49883496339862093
-0.5249385831205392
-0.5461908349362279
-0.5874523123514678
-0.6420321833023359
-0.6604100560281053
-0.5951116334746153
-0.6121685685824706
-0.6450995403345607
-0.6053380728577461
-0.5983984947973222
-0.722361777777778
-0.7473053349922049
-0.7564401914352845
-0.5204266666666664
-0.7600813820755868
-0.6399828151554917
-0.6808191372928291
-0.7396725039608737
-0.7400660066964692
-0.7031158725435662
-0.736215505067284
-0.8233595884342967
-0.5413644454088901
-0.7715840397130508
-0.6649245920100646
-0.7016029375711669
-0.5668178038194436
-0.676483021819707
-0.5048102935102409
-0.5502327898326097
-0.4453698193199544
-0.4824296000000003
-0.44030884066956005
-0.6939652337749117
-0.47236494317007705
-0.42018754911011474
-0.5617338262698962
-0.42084540297582146
-0.30564429145831623
-0.4695439273902951
-0.42921088758007864
-0.2772767205224676
-0.420434003034354
-0.4293363772609819
-0.27412903705950875
-0.4182530241569036
-0.45485
-0.36551339078678163
-0.4851739667679334
-0.8831033734242607
-0.7657876109450164
-0.3761802923269926
-0.8834022823624998
-0.8745006609583755
-0.7146507939860386
-0.35161450317841497
-0.5621094815823996
-0.3813672905972309
-0.7729200348648354
-0.7364661946933793
-0.515168020846586
-0.34820199999999984
-0.4219361327440343
-0.5709760187472631
-0.6335112018500998
-0.41221612571696303
-0.4388997423099435
-0.3159216216382069
-0.4638696809506088
-0.5333052572607114
-0.3425590572168209
-0.36213001380536086
-0.5175693333333341
-0.28803090468318454
-0.563109819424822
-0.4342149509449537
-0.40012629253472193
-0.563839526071053
-0.5097756737546216
-0.5423080336460651
-0.6224975356083248
-0.525496808018186
-0.5583210251736118
-0.5542013438738215
-0.5786697800515718
-0.6496837383756969
-0.6127959342486874
-0.5900298676799204
-0.541265919404836
-0.6791085333333341
-0.7425369668165017
-0.6117016536121962
-0.7240525818388889
-0.6895722302487196
-0.5995221486681414
-0.5922205066666671
-0.7591813725976443
-0.6777483105502697
-0.45702685678859295
-0.7772773884389858
-0.7046819443489291
-0.6689125736338274
-0.6636161111799961
-0.7522938185676075
-0.7180104218797543
-0.6947099333194712
-0.7049438263932651
-0.37464599115769914
-0.7792022219355346
-0.5826412623517251
-0.6293503790646237
-0.3975426399813589
-0.6058294412706627
-0.4874474718416106
-0.4806682039213835
-0.42468505143672025
-0.506082049018392
-0.48479176548212605
-0.744729359716194
-0.6153754482263308
-0.2578632496343188
-0.5599320042472397
-0.4491835778316027
-0.2148794378075595
-0.40843913995054937
-0.33995078622198727
-0.17757024143383945
-0.34613431683660884
-0.29034681511458177
-0.27624682291666675
-0.3796458525688023
-0.3897943957252999
-0.4728374416201693
-0.8859465827650345
-0.860223486456961
-0.5926759505683195
-0.27936880910353684
-0.7445884920464997
-0.8693295913179759
-0.8331441204259807
-0.5131963451616083
-0.33781620929944195
-0.4527669436491292
-0.3965063716090858
-0.6894079065162546
-0.7647645335837402
-0.6616866389610032
-0.3932764059378671
-0.35948799999999986
-0.3744762992335051
-0.5480623795429443
-0.6672285252059269
-0.5180374090652334
-0.40592812206923773
-0.3636396841557074
-0.5971506438189708
-0.5614572186930394
-0.3978909272291756
-0.3891004423336846
-0.4527194189570852
-0.5083804230952095
-0.6873366113703411
-0.5453845845344923
-0.4160788338541667
-0.4998563979044574
-0.5725834160078511
-0.7721286313879442
-0.7219276682647936
-0.4620395355238684
-0.5083280959280324
-0.574287633757118
-0.7287445511469314
-0.6726167327960316
-0.689858455120616
-0.6091495418661984
-0.4672809692659546
-0.5431565599999999
-0.8124061849879834
-0.5414913375476768
-0.6951380440284628
-0.6826051174740715
-0.6348872189146317
-0.5097073464903227
-0.6337092106633601
-0.4942939217313012
-0.44510197458152506
-0.6858879321110236
-0.6464239615140701
-0.7007321795729315
-0.6182024480452857
-0.7688337202200958
-0.6471394929696218
-0.6095119429044668
-0.5037331058532
-0.35687194274813233
-0.7330129462481104
-0.525988037404422
-0.5408914392302216
-0.3741906709805746
-0.5474648696284454
-0.5106828289389687
-0.4955732042756295
-0.4595781473070453
-0.5829587092374456
-0.588779829454498
-0.7564108627815659
-0.6907305876560041
-0.45272767333313263
-0.24064981673622818
-0.5583198549935331
-0.4899045487232036
-0.33721410990123446
-0.18651736075683542
-0.3807317778970769
-0.37871400428533897
-0.23005069002448372
-0.2534292529448234
-0.34608589487767744
-0.3572299013042006
-0.28371780967985577
-0.40725640156847326
-0.4523861939858796
-0.5198162988220707
-0.7957201644967963
-0.8391460784191245
-0.7433062720973661
-0.4535954597419222
-0.27745992593511026
-0.6322294592546659
-0.7744194738995938
-0.811274061133068
-0.6979039545561728
-0.4324925993215077
-0.3076626700186164
-0.3830469946904664
-0.6131751898645789
-0.7110505739210514
-0.6822180320830746
-0.6100517376436531
-0.39939133849969094
-0.35814614858441823
-0.40212501943664886
-0.5826203426550177
-0.6365912961263406
-0.6182274764620793
-0.5047292583938222
-0.5365589444105148
-0.7029557943542062
-0.6583884530366109
-0.4491449985090223
-0.3728219228559453
-0.4874383484879798
-0.7697873795480444
-0.8063556932424053
-0.5613480344559162
-0.38053260710530096
-0.4961010910249845
-0.7066916189295301
-0.8910022295631671
-0.6562378515395753
-0.367643274578181
-0.5016035492085612
-0.6272374409872014
-0.7523386505476335
-0.6250985666275949
-0.6931787372396045
-0.5976583205891152
-0.5107912029628264
-0.4031248091423845
-0.693226271375745
-0.5169511897340763
-0.5809886836787453
-0.6366725722644141
-0.6309208935512719
-0.5795097578563069
-0.5024592234432286
-0.4275823298715935
-0.42299498760074383
-0.5557837045102189
-0.5996327307016878
-0.7143648708245505
-0.6394093657400886
-0.7656124313413936
-0.6234673474271548
-0.5652487637338895
-0.4292712796384725
-0.4034655284980131
-0.712804392289118
-0.5653301482528904
-0.5329608841416937
-0.41139785040276067
-0.5869792135335753
-0.5936589823032659
-0.5160268092747665
-0.5782118345005661
-0.6471996233106017
-0.7027009190195854
-0.7294235007232893
-0.6542687803942244
-0.6028851327979363
-0.35335812454075266
-0.235862371638243
-0.6187616923229297
-0.46589216392114524
-0.4984707492487744
-0.21940588460141977
-0.2907456
-0.5041199500314343
-0.4256422235781568
-0.4150543996987181
-0.23744723191663428
-0.47897657521863063
-0.49108957094177147
-0.392370337085937
-0.5222826212418575
-0.5239316305683844
-0.5358045815251082
-0.7624159999999999
-0.7177112458541172
-0.7100996339630207
-0.655968132996083
-0.3154118866544254
-0.28597841105231875
-0.6338936703864423
-0.73378680343894
-0.6436402685716159
-0.700557312061306
-0.620484564578433
-0.25478397071550873
-0.5113480117181485
-0.6692698834209847
-0.5807379106465632
-0.6593946744791664
-0.6244803701797275
-0.43568161506523806
-0.39581602913825137
-0.3964558789036647
-0.6266100616061118
-0.6496160923744578
-0.6181758685403317
-0.6156096983269229
-0.6963430540045811
-0.770993626666666
-0.6942539033385233
-0.4018515839829095
-0.3779025597183104
-0.5598546666666674
-0.8958791518908865
-0.7702534869353171
-0.45185673303381596
-0.3780842271703541
-0.512190700146734
-0.7113837390645442
-0.7793396650416183
-0.4894556533359377
-0.40344633784411
-0.506012038194445
-0.6287247016785038
-0.6927826070018773
-0.5990989885852659
-0.6383631501829506
-0.5908497939116996
-0.5990576631535446
-0.45196058195494854
-0.5116883027447231
-0.4751228396945774
-0.5242365678392263
-0.6018449069713845
-0.6541768108523267
-0.7008776266666671
-0.48926401890726373
-0.43308178238759987
-0.4073206346253229
-0.5091826391974377
-0.633039493174318
-0.7504231059309778
-0.664779664806779
-0.7627985026294715
-0.7060834113701868
-0.5790944940177206
-0.44126455480555643
-0.4033017005196636
-0.7862862893985175
-0.6378097315147877
-0.5499790314337359
-0.3911326918671944
-0.673721580790292
-0.6638328475663221
-0.4611050156893847
-0.6999164756288617
-0.5954068389870805
-0.6880911127553745
-0.760843333333333
-0.5847528673627358
-0.6030862804456126
-0.5594521505177076
-0.1936670759145519
-0.35386444513329196
-0.7055955273128057
-0.5000041596868031
-0.6013320512452006
-0.4375708927241995
-0.2192752225019121
-0.6281644916305018
-0.5263271338952188
-0.6336867792325532
-0.3928329390499938
-0.5616356340841769
-0.572755882110581
-0.6056626729034279
-0.571097817984497
-0.4867084723514219
-0.4716100000000002
-0.7715955999999996
-0.6653096824215866
-0.5380898139375531
-0.6862544684672582
-0.4962332879745522
-0.1794046064838004
-0.6327894278279712
-0.7414617728315456
-0.5527995095486103
-0.5157310862403955
-0.6967480096441693
-0.3765353769444704
-0.6303597640143928
-0.5605277748655874
-0.5108212933112898
-0.6887057572916665
-0.5798254719607344
-0.44727738515762483
-0.4291007999999999
-0.3640771221841108
-0.545633079685759
-0.6792231290762557
-0.6103735999999991
-0.6253397735423027
-0.7613363807949295
-0.7402571039999999
-0.5734409033964937
-0.34839528318764845
-0.3947871932791866
-0.5499188888888895
-0.7949842611283323
-0.600419280033135
-0.40863558159116686
-0.41170690312499997
-0.5122734101445984
-0.6456594869136258
-0.5835219259826817
-0.45493509840098106
-0.5236215484190949
-0.5324309172453708
-0.5988707223785091
-0.6591660771200286
-0.5539946211157991
-0.6119374246533268
-0.6074603299515977
-0.6865004815044439
-0.5981923039999996
-0.4613966890219503
-0.4737747771822673
-0.5193825908597275
-0.6131829590012164
-0.7297795972765947
-0.788801955555556
-0.5304637244885306
-0.4646296566171078
-0.4562
-0.5290109328431196
-0.698412676689625
-0.848456758611237
-0.6628521044292908
-0.8388094311890152
-0.7980489605827041
-0.5993857854506839
-0.48390652242394877
-0.4310581288362577
-0.8768511331317727
-0.6520266828656832
-0.5654630206712897
-0.39056542968749997
-0.6775649101152393
-0.6578838142794736
-0.39302357098574087
-0.6928945814891813
-0.4472496
-0.5107069807811531
-0.7494279999999999
-0.5603530110114862
-0.5211758113154432
-0.6826491951284054
-0.3559574546605379
-0.2406857525422967
-0.6633303103947101
-0.5342503770718389
-0.6177485259262387
-0.6659214234642975
-0.3399101804505054
-0.5795694352138872
-0.5406311427140694
-0.693145464669831
-0.6166724079683863
-0.5110481890886543
-0.49554349172755546
-0.6751626299769232
-0.5024148510963692
-0.444987122894057
-0.469992
-0.6997162357925185
-0.6532074044268085
-0.4376953426657833
-0.5415438287825846
-0.6382613142910839
-0.27348671845046335
-0.581446710132499
-0.6703753151401206
-0.5816929314236104
-0.40497956377778205
-0.5751344931041141
-0.5357656042801952
-0.5874630003809376
-0.4765253010401604
-0.5614715897912785
-0.6300964904688784
-0.489868200379272
-0.41040057511882644
-0.4147566666666665
-0.3421514576908862
-0.4306172246662227
-0.6163991098414189
-0.614846186666666
-0.587540203270246
-0.696792864641454
-0.6276149053771435
-0.45463966929686334
-0.3458198215642651
-0.4168416138218944
-0.5019433815526633
-0.6308804157618652
-0.4939539820579129
-0.44007372744704304
-0.46725462760416664
-0.5138014431199606
-0.6151350711291684
-0.5068158331655648
-0.5047378099524694
-0.6224185840049598
-0.5803268038047343
-0.5910481910370636
-0.6118052628945277
-0.5773375855053651
-0.6055377694789909
-0.6443533005761476
-0.762440023843606
-0.6914927733333335
-0.49003986433781527
-0.5520035462004262
-0.5598291218191651
-0.6363599688649066
-0.8085117357984495
-0.8707561633119787
-0.5474150547633811
-0.5673815018983229
-0.5725659045276998
-0.7130133419196905
-0.950476663303007
-0.7351435867019706
-0.9615383078243819
-0.7678676259196976
-0.6184045435095178
-0.5709396701310855
-0.8042503550083621
-0.6245257420259912
-0.5698841466182625
-0.5824648544864209
-0.5636230806704281
-0.5439427238104856
-0.6163055283460758
-0.525759615768358
-0.4487119946603553
-0.6288319303655983
-0.5395443123913174
-0.30490522552283933
-0.48840181667934396
-0.48767773006856513
-0.5209808881653312
-0.6841191911312378
-0.47545602616243016
-0.397734976398429
-0.46660891376259356
-0.5440530615637568
-0.6481729165989237
-0.380048249529454
-0.42726440096957313
-0.5598746180555559
-0.5079608959017917
-0.42005973180505235
-0.5080845040297584
-0.608848617689606
-0.5796635974784397
-0.45672039417633264
-0.4038570887519224
-0.5895337413184891
-0.4129005246267625
-0.4740666986980777
-0.5794035109934401
-0.5805189582799651
-0.44974418778044273
-0.4175376245091964
-0.5488298870939853
-0.4595585395660932
-0.48398268343046164
-0.5806567672405447
-0.5226019177104325
-0.40465022555625835
-0.3644611338430804
-0.36890682951022974
-0.347439975989099
-0.3633340593697795
-0.49004330306898974
-0.5813590978990142
-0.5438522516567265
-0.594250858853042
-0.5018971417813601
-0.38332224499632145
-0.3707293422021556
-0.4284827281032673
-0.46526080905145767
-0.5428279198704169
-0.4295392612523253
-0.4616061512088285
-0.5220765846518306
-0.49979880448661324
-0.5634097949051409
-0.48292668010265327
-0.5161895629951085
-0.678688306427281
-0.600768543180248
-0.5706968263395963
-0.6386720156522181
-0.6600584232279392
-0.6364332348902141
-0.6472252952462975
-0.7964327030435833
-0.7489509480305842
-0.4831380270094862
-0.6282485759761806
-0.6484752280291999
-0.797595891368566
-0.9421955289522627
-0.6146084661656478
-0.5983319507315238
-0.6858301702344014
-0.9077962742809474
-0.8820026656478729
-0.9225328063298405
-0.6737095929822523
-0.5849585774995784
-0.6159842646451285
-0.5422359783839639
-0.4453833923566368
-0.5123122769856029
-0.42968179970726156
-0.4265391023834664
-0.45763086351354815
-0.5535466156338061
-0.34565950338788726
-0.36121376923162796
-0.35635663182928207
-0.4234385732387567
-0.49868683925299123
-0.46418394511262634
-0.24766610545779985
-0.3530676348770481
-0.42524539344072987
-0.49506905765654147
-0.2421173314089384
-0.41592628874695653
-0.5164654947916666
-0.5764009636957692
-0.34034184398072714
-0.4931751828890269
-0.5101728000000002
-0.514629562231269
-0.44511614058435717
-0.3826717724728829
-0.4125387501136608
-0.460026543979355
-0.40635311634635224
-0.4933431492838985
-0.5100125715805
-0.45642493725422867
-0.3605726463484189
-0.4305695661041912
-0.3840661587785079
-0.45852687039699264
-0.47248233764091596
-0.42731757135416665
-0.37282402708817686
-0.33529815329300977
-0.3152669094854308
-0.35626888975000903
-0.3519941075208519
-0.35457121463112196
-0.4592489402493634
-0.49156264855005455
-0.5034367706920434
-0.35470774399999994
-0.3547794186652966
-0.4109287005064483
-0.3908523185934219
-0.42029188675346213
-0.45376087662740255
-0.37542322303506276
-0.5018968421200575
-0.5119199832973303
-0.44708081199886557
-0.5772070296856978
-0.4203514532313291
-0.5503424309959696
-0.6748299683905453
-0.544096489583513
-0.5952679762474652
-0.7398295009299442
-0.6864451686814658
-0.6501733052859001
-0.7248854365547911
-0.8001289884190945
-0.5082097053674817
-0.6303185753488905
-0.7410608995962337
-0.8806480770958189
-0.758820999204772
-0.6056358938091737
-0.7721432778084959
-0.8956508861782546
-0.7350749116886633
-0.5446683898326102
-0.41758912478394505
-0.46759466666666655
-0.35121069260482174
-0.3489466894847589
-0.3443263353230692
-0.41460902186391135
-0.32119093663196074
-0.3655110047530488
-0.23978449454159192
-0.3183442719047687
-0.3543530932870684
-0.3611402666666672
-0.2605707408555485
-0.24745466332533547
-0.3863708273263653
-0.4094521841289523
-0.19811574808844776
-0.3765848429807453
-0.5726950330458473
-0.5919122603641077
-0.2561991293023251
-0.46048600000000006
-0.4744886666666668
-0.4694977513795025
-0.3748233096647116
-0.3280167947090644
-0.2816222999132049
-0.4197986506078684
-0.4207634917148884
-0.465588967449935
-0.41343755815972183
-0.36073633740555694
-0.3193583816253219
-0.31379654176139377
-0.3804878860868853
-0.3665834197255291
-0.29828209361438307
-0.4221490399305558
-0.4016414974639176
-0.29334118512250734
-0.29315376069435833
-0.320737584204178
-0.4093383475859287
-0.34256787745401973
-0.2626857866666663
-0.4386327959204692
-0.3735389646621199
-0.3053570400000003
-0.4307317591622843
-0.39958129876494825
-0.3358287133831641
-0.44238551007751964
-0.3800456073568918
-0.43017771490753626
-0.5207231754640803
-0.4148718504845607
-0.46150561501381365
-0.7078467741268852
-0.4148707067842112
-0.6284845623513458
-0.5718188017794167
-0.5252269338765975
-0.7093904232926175
-0.7020169812305186
-0.6441201873680318
-0.7597127652572838
-0.6290680548731882
-0.6936193658551807
-0.7315654990938859
-0.8230340132643087
-0.6234328701797895
-0.7445443700444239
-0.5090709782049577
-0.4966233333333338
-0.34832983536534035
-0.25458627528812444
-0.26005402597774613
-0.27830352460568464
-0.3163666336019839
-0.4799414190259705
-0.2449294348601443
-0.23361030465033036
-0.3018108221128111
-0.29221935999999993
-0.41506521698698146
-0.21043116491772895
-0.34785296269916804
-0.4429062890389836
-0.291329773713577
-0.29695005366989585
-0.5899872339756839
-0.539708541509083
-0.26929863049095604
-0.4339299999999998
-0.5373433341599501
-0.49510417818835656
-0.3217048218925447
-0.262591247698663
-0.23210405078534793
-0.32420690808088665
-0.40054380214705115
-0.5300899512699006
-0.43107589409722263
-0.23994486217569685
-0.3175043174671794
-0.310700281878673
-0.4397428392679635
-0.22635385838396352
-0.2927812344148242
-0.5246134237843983
-0.37853111286622537
-0.2716945272389672
-0.3252315053229972
-0.2816178933245925
-0.3986089175219141
-0.4934975830078165
-0.22177422222222212
-0.33676921759695017
-0.32547730453950513
-0.4426050244595979
-0.4716260491967847
-0.3095167355146826
-0.3433548031846849
-0.570540000000001
-0.43108307575525134
-0.5315850475814341
-0.44819455306649475
-0.36429313041397493
-0.6152678585157176
-0.512954368653089
-0.6543791412546566
-0.47491022600864125
-0.6416173133680562
-0.6504021109733423
-0.6359554429354012
-0.7367416889113506
-0.6107061333333339
-0.7202148224773207
-0.5525433395329614
-0.5867928580285177
-0.4521216225132219
-0.26008413474100406
-0.23407256667815654
-0.23305461279063674
-0.30173331184128943
-0.5793521352288469
-0.36177399988521236
-0.2510387474840919
-0.2920493263763903
-0.30482037825997127
-0.5090352842277693
-0.24469032196984242
-0.32672950947620544
-0.46361663861716124
-0.36319841428252925
-0.23586087847780215
-0.5539977135416666
-0.42670387914109104
-0.3085263828636085
-0.4021085782186403
-0.5471602796032239
-0.598398753481378
-0.37605739864074655
-0.2698851393805522
-0.3077152946219747
-0.28890696727396076
-0.3562941227608549
-0.524563888127176
-0.5621549546957146
-0.23049298863922582
-0.33225333654060757
-0.4457051428410039
-0.43693932159580656
-0.1696421250671628
-0.4773893757625404
-0.5121914531161202
-0.31437408645023096
-0.2901167836688661
-0.41954400000000003
-0.292879013488668
-0.2819333149117557
-0.5366768507346348
-0.42304348363986866
-0.281034591173245
-0.4724738203635026
-0.5568416333539988
-0.3914370015110589
-0.2715249025890912
-0.464396765949532
-0.5342197930442711
-0.567367547676613
-0.3910941121758971
-0.47055265364583315
-0.6192203929440423
-0.605905293493569
-0.4909876348419094
-0.5261705599999998
-0.703575712814371
-0.5372304290142591
-0.5987162275263483
-0.5774029442480942
-0.3358190850328499
-0.3307829969568783
-0.29514094048618483
-0.2980629457419164
-0.5490310086688456
-0.4632478828447238
-0.30530035028884944
-0.37491688588890953
-0.3351000677412687
-0.4697558677374892
-0.29245983734027425
-0.31968355957059286
-0.49046783942963407
-0.3588774498760902
-0.2172090697044791
-0.46555427083333273
-0.30489820701637743
-0.32561204189186377
-0.4032962275263484
-0.4923599783013017
-0.607552103955502
-0.49594577331325196
-0.29573656792967923
-0.454360246712131
-0.3824056555217316
-0.37217936118648304
-0.42041682158906285
-0.5694839418104093
-0.36964823526927587
-0.2999258674932836
-0.5384811146566051
-0.3647594991414173
-0.3349128753250054
-0.5484272938690945
-0.344338533549835
-0.32760475773133363
-0.3804062388923333
-0.40095946512343134
-0.264085028328742
-0.4005987204862656
-0.5796614168216575
-0.44336260059119237
-0.6301852645828028
-0.5318621173713574
-0.37428917383177995
-0.3847922814496582
-0.5835700202608304
-0.5744123557989145
-0.42904234889127374
-0.6417700962059555
-0.5130124582351725
-0.5281784561350373
-0.5170149138940544
-0.5819078521895755
-0.42493917198627895
-0.41761195458636985
-0.45329763292609826
-0.3286950795061614
-0.4307008990876335
-0.4897864446290647
-0.3663114416444671
-0.4683620133286131
-0.41599223999999985
-0.39572386058998016
-0.35785965675640496
-0.3202588919261817
-0.5079123351932218
-0.3739706848736591
-0.2844277177823367
-0.3481381938928287
-0.3220174403704295
-0.3541849357604265
-0.3964310901012605
-0.48994641343669243
-0.4706112044357749
-0.5311744374915252
-0.38459927330269567
-0.5043951625955785
-0.4999526882967365
-0.4850553358131839
-0.3932701144640199
-0.4011025025293613
-0.49304357340900334
-0.38930633292476396
-0.49872247413992427
-0.45985287515052153
-0.5568325647518287
-0.4243510573551638
-0.293245049597868
-0.4680486017380708
-0.4203134699013977
-0.354656077403205
-0.5440566259557756
-0.6805911632465865
-0.6492819344667248
-0.5074327823462532
-0.4549158865125357
-0.5824763599488011
-0.5261190681545774
-0.5220539265790571
-0.4740180534022391
-0.4405853305719669
-0.49460368059783083
-0.48857463040756083
-0.5622792158897506
-0.40457204215747045
-0.3601623221540324
-0.43888762573403994
-0.4580205267846669
-0.5005523610654817
-0.503717466666667
-0.35147302456526525
-0.4260492809752829
-0.3949276577971948
-0.467377870719243
-0.4019496408736511
-0.38736308068266895
-0.3628372883448608
-0.393034910900351
-0.3939341875388365
-0.3905521054263566
-0.575444
-0.3732560676926859
-0.42183899446800405
-0.5269104998453339
-0.542260039138064
-0.5298668091269632
-0.5267909400458802
-0.29969679743934835
-0.46795643985014196
-0.6017581222982131
-0.5207591717792247
-0.6852551911760968
-0.6051519926529637
-0.34011119944678625
-0.4550165338541667
-0.44739357222566656
-0.4663379659741604
-0.7445442205328137
-0.5813470142860578
-0.48287112000000015
-0.4982691990080595
-0.5299733333333329
-0.29170939319812894
-0.4714567079837864
-0.5899037495692601
-0.5776392427167081
-0.47537551973548275
-0.4124250175656133
-0.3103885551081556
-0.5027883007638535
-0.5535542632471616
-0.5229626917131638
-0.3789662864228146
-0.3807406075443984
-0.4651753933655521
-0.49487815150480324
-0.4169068133911967
-0.3843233576283838
-0.41802652569509036
-0.3852134597848132
-0.4194366863049096
-0.42552
-0.4690760710521414
-0.2824813997478612
-0.5563724087422502
-0.64488721538525
-0.5333418453178994
-0.41579822916666637
-0.3618726761221262
-0.6737508023321565
-0.6312896603653869
-0.7507114878377966
-0.5019164096385093
-0.39571140008266154
-0.42353466666666656
-0.6352857036522384
-0.4792542467451953
-0.32856762853356747
-0.3214486136153169
-0.6047506377587427
-0.6070672618863853
-0.5088652970498146