<?xml version="1.0" encoding="UTF-8"?>
<VTKFile type="UnstructuredGrid" version="0.1" byte_order="LittleEndian">
<UnstructuredGrid>
<Piece NumberOfPoints="1536" NumberOfCells="6750">
<PointData>
<DataArray type="Float64" Name="f" Format="ascii">
-0.5879762093124191
-0.45229
-0.5687711362353863
-0.4181999187798374
-0.4975678678157356
-0.5033446619323848
-0.5166984649789176
-0.507284375
-0.5013696328788055
-0.44292511672993545
-0.4907821667699938
-0.46849064942343127
-0.3758174690557375
-0.4659616
-0.48939237122367535
-0.370713507636066
-0.4834556912585245
-0.573971391477149
-0.49884511346414945
-0.6560113825170492
-0.5435400869345139
-0.5172550555891468
-0.3743726255424677
-0.45472912033494156
-0.4513829053669904
-0.3529863165558385
-0.4812115500658818
-0.37436632309007223
-0.24159751671833082
-0.46004155143000447
-0.37799290021703486
-0.1919350067883308
-0.3776713490795432
-0.4459559047913919
-0.35423399549493767
-0.39932581205005885
-0.5263903716409446
-0.6012290700557966
-0.4914563536962166
-0.3778333256130008
-0.4768428349119525
-0.42852764809280713
-0.46442368975564524
-0.3367505176689398
-0.4185601720794026
-0.33255567271345
-0.3513070307359596
-0.19138526695598265
-0.4193331455406941
-0.4707768554742131
-0.3165063657490792
-0.08368352103760943
-0.323040855852403
-0.47473770883786054
-0.31635079368321556
-0.29784200032541536
-0.37452162974883635
-0.33624601458197656
-0.2642045553626783
-0.2058734466434184
-0.5222383621683236
-0.4983093469725145
-0.4486682436913911
-0.3997561865138681
-0.4952607867346009
-0.432811316080931
-0.33460109248216025
-0.4245300533251777
-0.5031111523711006
-0.36126955036361824
-0.4582387010114151
-0.32860143624715854
-0.3971518241425442
-0.4578801954877261
-0.2525701023351937
-0.36229913423317234
-0.16374983209244776
-0.34204446658938975
-0.4647493513273459
-0.4648102967180637
-0.2594598574750684
-0.3283718815418357
-0.3785584789579232
-0.508922464478607
-0.3481082278677637
-0.27769117237928964
-0.4382913106364687
-0.23710649888850052
-0.27566938094647686
-0.11566995770903055
-0.5002465393891288
-0.39034333333333393
-0.37946050323434033
-0.5215093976722524
-0.4011504470486115
-0.4672562475489436
-0.36190121094628275
-0.4823860350683611
-0.595432275923823
-0.3758229417234968
-0.3721536952307097
-0.40502167413313944
-0.5147006119944901
-0.5856944849309755
-0.36141173333333304
-0.46193417311362356
-0.33510999999999985
-0.4106814118275092
-0.505275630130326
-0.48211628905249465
-0.36721119859475004
-0.33462396981845094
-0.466163604541384
-0.38430769175974894
-0.49467053441512965
-0.45733015830698326
-0.4077990090475608
-0.3501368594922012
-0.4503895301628961
-0.5303030772569441
-0.3568617622129196
-0.3163336756099398
-0.5125095060963005
-0.19962633730858656
-0.37019919999999956
-0.17843556809258043
-0.44363888709777505
-0.259034
-0.25923317130634255
-0.4792408045031434
-0.29548066927083333
-0.521483830046873
-0.5927075337587637
-0.322959222566646
-0.5585814128047139
-0.4331296265021991
-0.39140998167443436
-0.4418925027454032
-0.6559707588818481
-0.6321728770148346
-0.40157495999999987
-0.4168380765494864
-0.3785379202076389
-0.47357149680727256
-0.6978306901196816
-0.5914761797838269
-0.4837808977061377
-0.48323690216753873
-0.385198
-0.391037646734306
-0.49451841793957324
-0.6382137795004522
-0.5012094539415843
-0.4953809763499928
-0.48285465583781634
-0.4187410394224234
-0.5340282148367616
-0.5204801546283092
-0.4600273277350076
-0.38773938806613667
-0.5380348357279652
-0.5849489713541667
-0.35631018283081545
-0.41785166355977127
-0.5758736893986363
-0.25520062130667226
-0.48245776
-0.346846122752635
-0.32460421633910014
-0.16775055486670776
-0.18163847365874305
-0.35698890438118025
-0.20692730336496634
-0.5501927106151403
-0.4732928746284842
-0.2513003382983525
-0.5835044332528176
-0.4983320369826583
-0.5426004056792019
-0.3612413744988632
-0.6861851121799011
-0.5273040508149122
-0.4155776386034527
-0.44299864985878595
-0.37906852678523967
-0.5918868248976691
-0.7412137093727815
-0.5695137585698636
-0.45366092219434767
-0.4655856950833905
-0.4041648186221754
-0.39053656227626204
-0.6380882442548477
-0.6829917937865955
-0.5669259435733015
-0.568491402232191
-0.4689737538747679
-0.4308681320597904
-0.43744366119651273
-0.6105178455273831
-0.5360587858660358
-0.5155755237914618
-0.44070856578443346
-0.5029210590190961
-0.6160774623335251
-0.5832508806295686
-0.42282624089126314
-0.47886309642488084
-0.6216729361273035
-0.6010879250391241
-0.38638195603666364
-0.5343443058325584
-0.58897574854679
-0.39111533556331396
-0.5581306781979751
-0.49363597543760984
-0.20250349236341678
-0.16073704587724721
-0.230794605737444
-0.5197815988840659
-0.2242589349384673
-0.27504687229035263
-0.32019184527734273
-0.30795382413849876
-0.5370261867926888
-0.5928327144038017
-0.40226328628396696
-0.38000207650340917
-0.5959342996987366
-0.6193573740763578
-0.4483765999061067
-0.46744216182189063
-0.42844086605433956
-0.6093346534354768
-0.6404855117101392
-0.46773216533040934
-0.44270382000413283
-0.5090304726183096
-0.3927944306302081
-0.4803330828533134
-0.6451467510704579
-0.5548401346724533
-0.5037402388011767
-0.5350693924033978
-0.5163953645694547
-0.4031744406167659
-0.4885722171747234
-0.584877803637116
-0.4699707283113917
-0.6515229301825092
-0.47689364744782015
-0.545381244090711
-0.4604748970617039
-0.4603282903128167
-0.4687035357680364
-0.4101403503460593
-0.4552619918578214
-0.6008024549006855
-0.6568915038527794
-0.48661996406786034
-0.39606972238439814
-0.5765958496962184
-0.6462860663515978
-0.4793041486530348
-0.457755803891378
-0.6245110421442849
-0.5290411008433111
-0.5468858386486951
-0.5740284622855963
-0.5289023697793054
-0.17232453878489154
-0.22687999999999997
-0.3818382468844936
-0.20312249310873776
-0.4989813749999999
-0.3876599028261563
-0.6697747371357717
-0.3863304729444455
-0.2952358518842981
-0.5341474265344078
-0.3912146796806411
-0.53494784
-0.4323405427006736
-0.6713707451372852
-0.5378194337673062
-0.4771254689653017
-0.49797145443273394
-0.44355502366440197
-0.6180987864397666
-0.5727422921154992
-0.4242185217331403
-0.5017368994004902
-0.42000686290965855
-0.5477514028670497
-0.5296649898977991
-0.46413447830282456
-0.5242517730936144
-0.5917532257735026
-0.501261050843984
-0.46982002038468523
-0.4726834236084496
-0.464836804612523
-0.39075516770377977
-0.5746303888908775
-0.6298795044757278
-0.5131963282129898
-0.44457078942378553
-0.41524552061720693
-0.3832084035953999
-0.6124466464283528
-0.47696199999999994
-0.6086862252045058
-0.5498238941994854
-0.38473133454570463
-0.3715735706500714
-0.321941113929706
-0.5303657267699938
-0.615393623386995
-0.5827931384927756
-0.4016907327174654
-0.43647695207722137
-0.6311189704515958
-0.6036632496752632
-0.3934357526041667
-0.5604677049554472
-0.6540978137284931
-0.49014802417854936
-0.6156601898486781
-0.5663504799999999
-0.5006513056416616
-0.26068860020253387
-0.3372366666666672
-0.5180213850827704
-0.258199835087204
-0.33954459442518314
-0.671052078993056
-0.4511165832358122
-0.7028298305435011
-0.25185877793958783
-0.5597028459156048
-0.6279431047737131
-0.5563299530355574
-0.3273812890190691
-0.5460215620535459
-0.6326037333333334
-0.6116055746758421
-0.5152821037404421
-0.391823080177046
-0.5145769713416665
-0.6229306717777362
-0.4401422222222224
-0.5849186497121501
-0.42676939485727233
-0.45086668330148766
-0.5184286784567221
-0.507752877839089
-0.4679749138251701
-0.4158372233348216
-0.39840312665701666
-0.4235396775181291
-0.48725565393518505
-0.5229345718078094
-0.6065429028957479
-0.6366021259596195
-0.586190313664494
-0.5492789387426167
-0.41096540194255016
-0.3722465409712747
-0.36119297387879795
-0.5850614804802944
-0.654665570099748
-0.5536386347694147
-0.519409797930818
-0.3247840444444447
-0.367999028533791
-0.5175795432314628
-0.5794533333333338
-0.5958601589547992
-0.5526381452761057
-0.44118112196734843
-0.28309843700489096
-0.3573346195925411
-0.5605979390324555
-0.5875129557337537
-0.47795798462251665
-0.49289312377291483
-0.5056993187866253
-0.6417107194246349
-0.5379208233889373
-0.41332610677083353
-0.6162085169750159
-0.6158909375989414
-0.44258897499483313
-0.5754516732857661
-0.5028569333333328
-0.4440094585658191
-0.41721277843222454
-0.4177775098160774
-0.533760075917672
-0.4949139773021036
-0.4389642932424055
-0.4694925059348878
-0.4419271443758283
-0.44256408555486665
-0.4058468862776656
-0.38345822415283154
-0.40935447028423794
-0.36521168459187997
-0.357756316390339
-0.40811
-0.4358182497364994
-0.37948597929195854
-0.28982036081835083
-0.5007339469012595
-0.6249163625162533
-0.33084598753578914
-0.3061721169126433
-0.5974698469266992
-0.6429213852645395
-0.6685382875606964
-0.5819250736929122
-0.39529523371844216
-0.33600239942885685
-0.5100495584754047
-0.47651866666666726
-0.5045467487972318
-0.3698259511934026
-0.4799433116473834
-0.6763775514745695
-0.4789476342993301
-0.5903728772623086
-0.5314652403306469
-0.3883678458656376
-0.42349561696356713
-0.4825298580610499
-0.4126506666666669
-0.5029185421927674
-0.3990689630360984
-0.356544463998816
-0.4230864539930556
-0.5030877092607521
-0.5413055690386894
-0.3849665392949016
-0.3434716664122408
-0.3448181109733417
-0.5420843298611117
-0.5639142880186778
-0.5964444224346338
-0.6174321599504032
-0.5877720211304625
-0.5771854706281515
-0.4837212012812569
-0.2830208800000004
-0.3640540098455492
-0.5936673079546158
-0.5893215041473391
-0.5417551373935491
-0.5500507865678371
-0.3687671733333336
-0.2947264046290559
-0.4693511036224182
-0.6247463959495764
-0.5432031435437227
-0.5287895229320921
-0.4885178206731135
-0.3003218264104156
-0.4357123165038071
-0.5570507935576016
-0.5468948489714758
-0.3755802513606295
-0.5578569712479453
-0.5425050553378065
-0.5833371208018189
-0.4094289004061038
-0.38014084938671083
-0.5484085292864208
-0.49559559535136755
-0.3167714489987397
-0.4777982811811577
-0.36815676222360066
-0.3504106061273445
-0.4469747010401608
-0.5235168486518146
-0.4925541708845123
-0.5115690671379103
-0.43298265763140625
-0.4103749814804945
-0.43638701989140216
-0.36171295901699363
-0.37633819668254737
-0.36403850204151694
-0.3598261459918686
-0.45739778645833334
-0.4531114241535858
-0.34689406270712836
-0.36360696218226923
-0.2738848791072535
-0.4302477870107873
-0.5774029022613921
-0.5317326753585734
-0.24663009712665215
-0.2766170472671187
-0.4729795246593083
-0.6449410299181205
-0.5511113698698079
-0.6558947303525603
-0.5098713449214746
-0.5467181739910001
-0.34140945213370527
-0.2668048395302047
-0.36637087655851713
-0.40737079999999987
-0.3491690790135263
-0.2580925492960005
-0.4071740816507922
-0.5838121442997868
-0.5961346034102776
-0.5426021645074312
-0.45071127781773096
-0.2626151393304725
-0.2845208005108229
-0.4517713917291833
-0.49730142901425983
-0.4411762049951398
-0.30136759049285256
-0.2232529391798209
-0.4625269322916666
-0.5663564656616628
-0.5299186702120328
-0.3257092456978698
-0.20520627252187099
-0.39194516850588984
-0.6222334869736952
-0.5440949818903102
-0.5061071091134534
-0.5601685255218022
-0.5252237662049507
-0.5620596748593117
-0.5797434469017904
-0.28244697600000007
-0.25451624015835234
-0.5564169612595916
-0.4758449351537079
-0.5258141445062255
-0.5498852196416771
-0.45620486242336616
-0.25636500111593297
-0.4514828136736581
-0.5402188158710476
-0.40278259434610325
-0.518204875233351
-0.50238532794757
-0.3898245866269798
-0.47140691103650606
-0.5040622739243646
-0.39427208255069224
-0.27716379399997754
-0.47447493308656785
-0.4630288960987698
-0.4253701890059927
-0.23375772831020206
-0.2813647625050048
-0.4157021444960461
-0.31757919997637435
-0.21787641703875324
-0.35509403120474053
-0.278411661748295
-0.28052458649672585
-0.39333097747468543
-0.4333131064431322
-0.48400711149222014
-0.477540538760679
-0.44752083693184647
-0.3563788205710907
-0.4172266290275834
-0.4357617181238999
-0.3928435651166571
-0.3052959273751678
-0.4034061287863118
-0.47043095164290133
-0.31913703834423135
-0.3318312391161085
-0.4775968528263442
-0.44001593416633616
-0.293555161987149
-0.3243051394916305
-0.16860410622029295
-0.3443416930715575
-0.4427927561161143
-0.5879019835151715
-0.5335354179375901
-0.16276987531859272
-0.1809343717760106
-0.3726893905017608
-0.5356128518054822
-0.6638792826488608
-0.5210455695445421
-0.6831227922276352
-0.6002403720062263
-0.44934400666879587
-0.20090537888014828
-0.16855719433784125
-0.3458181337053105
-0.5012873746641875
-0.34962962523342705
-0.12197492043380265
-0.25095345776149386
-0.5068552751808225
-0.6115387573231228
-0.515299747969555
-0.32810633891299745
-0.08708036930233387
-0.3145754590453212
-0.5620436281305726
-0.5728142054143411
-0.36609677913475996
-0.11928493544396317
-0.22727364199729658
-0.5903506100377472
-0.6025285359218452
-0.41085532176069434
-0.18317205878555945
-0.15985624126472364
-0.5185614746701189
-0.6436572556757271
-0.4572981454957255
-0.4416489512295927
-0.47113878122389546
-0.4361646800434204
-0.5210095361386652
-0.6133253660002311
-0.3847279592312469
-0.19039355641988168
-0.47848654516890926
-0.37902400485672244
-0.4137429968999163
-0.5313855674860709
-0.49284870909967654
-0.33225398741804824
-0.4268064082852115
-0.4753457522215331
-0.23685392235044747
-0.3711018223911619
-0.46289837619342816
-0.4231922061182223
-0.39375308159384353
-0.3275918604670378
-0.17141337014877941
-0.23688280240743134
-0.3870021013088046
-0.3056534335593711
-0.22161087476013616
-0.14724203158631155
-0.23652547330688808
-0.303611950656312
-0.20194186128658273
-0.20603006636542306
-0.27182034726883053
-0.23542799351105573
-0.2033367436597941
-0.28602430323069516
-0.3546920476031439
-0.39913238133929774
-0.5313449472110344
-0.47412100109560745
-0.3679078593551792
-0.32599330034039586
-0.35569884752627523
-0.4810725801020788
-0.4671984
-0.3641507695232229
-0.28559375896208644
-0.3467643805983612
-0.48323710110450774
-0.3107373568722746
-0.3005404436929026
-0.43157823040713067
-0.42174212034024183
-0.2639911782522817
-0.2960918123579251
-0.1256342666666663
-0.2688395691962579
-0.36997924429721146
-0.5295005943802559
-0.6327387024967682
-0.4899359442001439
-0.25704075738789045
-0.1334743771260873
-0.2859970962232141
-0.46867992445861034
-0.6370653362986755
-0.6925760695986619
-0.7086084196385208
-0.5500543858803498
-0.35105842574118706
-0.08988945824652778
-0.2482320735909059
-0.4741241022219462
-0.6504111306054964
-0.4987637092749429
-0.17771784691331763
-0.07058618264104209
-0.43420818207618644
-0.6065442722782936
-0.491374405145115
-0.14527990400000065
-0.08179498133896003
-0.46018821011071137
-0.6543187191146328
-0.5004006666666658
-0.2430493725976445
-0.07127103870882444
-0.35714405419901757
-0.6319807445182805
-0.5099268321656639
-0.3337119384170281
-0.1558405129001331
-0.27182335010023745
-0.5644093488707752
-0.5549228602430554
-0.37526720395716967
-0.39561946136327536
-0.3888860204662677
-0.3512925412949955
-0.415271925914624
-0.554595399462699
-0.4433350428683612
-0.2771408837242076
-0.4575398134736925
-0.34429965242172345
-0.2521540821199259
-0.3944785878420067
-0.44562760000000007
-0.38023659985251074
-0.42975218077578553
-0.47632908733850143
-0.18899496439409302
-0.1442043725407766
-0.31163152877316214
-0.33994511179995884
-0.2516480532702508
-0.11775094706333633
-0.07047682660462161
-0.28509550057111893
-0.4076763524803492
-0.20783917882644512
-0.09587568025022127
-0.1921015290765583
-0.31927160006998223
-0.233457617099733
-0.18219346692312136
-0.2826377918821713
-0.21608516444342027
-0.23555187567958638
-0.16310287718360672
-0.24196888888888915
-0.36186868061461647
-0.3795845906684931
-0.47207181292210026
-0.5591286346880117
-0.4925600495970242
-0.314331112488806
-0.41254059743543725
-0.344795772530289
-0.39178995733923466
-0.5193074639965276
-0.2994650154990705
-0.37851270956827926
-0.31984313580095747
-0.3846841704916288
-0.2619564579458569
-0.3352563018664305
-0.42396757769716115
-0.41509036036678376
-0.24102377123169708
-0.2878299999999999
-0.2842056
-0.24300327932433685
-0.41199712423470625
-0.4860589698930835
-0.5837400068320696
-0.6347789821449608
-0.45811140580046045
-0.2608392532457066
-0.21730724971064908
-0.48376892275912425
-0.5642841702061946
-0.6742393389548598
-0.641705700809938
-0.5339236600327267
-0.2136801883998087
-0.16434159697916673
-0.44882475495132707
-0.6437164495853046
-0.6532124
-0.6199022059690389
-0.3612983035187278
-0.05643759190576566
-0.2889909333333349
-0.5846286521000071
-0.4018368960529046
-0.08197383679999998
-0.23749333573809658
-0.5247652364784
-0.5882947170934344
-0.37659666666666564
-0.22634243397396148
-0.20271396842050848
-0.43332596274153645
-0.5268674213541668
-0.38477236509806295
-0.34132951274476847
-0.279375675527202
-0.37284788160235904
-0.4871547737135771
-0.4309695760995369
-0.3544674104012493
-0.3435668319381929
-0.41937492547431793
-0.3129277574840143
-0.33022296195130374
-0.446031050148102
-0.40267276800000024
-0.36550141689330623
-0.532609700781207
-0.3938644029675336
-0.2099861112473812
-0.24345216003394232
-0.3645328888888884
-0.31905336986980787
-0.4998370842696906
-0.46632
-0.2661118746174871
-0.0656548948361735
-0.1637689780306841
-0.25579318454226047
-0.19777878983267053
-0.022574410481414727
-0.12619287860303544
-0.4040805879171537
-0.4756639959079917
-0.16453904927701957
-0.08265910065979902
-0.30997718372589483
-0.4641212239583333
-0.18160164978393992
-0.21930490754394863
-0.43771354928704287
-0.17464185651740263
-0.382866
-0.3525383632982021
-0.37104200000000037
-0.3606708490443553
-0.512490704597461
-0.4218674191977721
-0.46576931647058534
-0.6030331137079835
-0.35219495515602445
-0.42821043597996505
-0.4840267130189903
-0.33163242739815657
-0.38699817656540686
-0.22294140731556092
-0.40977219298829043
-0.40457388463675126
-0.3512070192444065
-0.14972048419094833
-0.35784037309814115
-0.46245445741415264
-0.407499899973133
-0.2059578643927645
-0.32719600000000004
-0.512205848729077
-0.3369697696902065
-0.40530859203954056
-0.5594023922487831
-0.47967821650456505
-0.5547538499290584
-0.6047722916684549
-0.4737593232104656
-0.25369577864583365
-0.42090303481101543
-0.5390742565832197
-0.5477669451270383
-0.54914015466116
-0.43459443601295056
-0.1628442151890894
-0.3610268971432209
-0.5782218389536111
-0.6825843128745605
-0.5001373333333328
-0.5890631990883946
-0.46745372272605706
-0.21303682527977522
-0.19208704000000057
-0.48552543448792834
-0.3446183728042989
-0.1847815255548673
-0.3611679751446326
-0.45254262130928374
-0.43458129646392557
-0.3477572893848589
-0.31628483554292014
-0.3331841762236554
-0.3940476185590776
-0.4093999713541663
-0.38045799241625317
-0.35539153993686606
-0.3847845362147539
-0.37736030747675126
-0.4180706612936558
-0.42693416013965596
-0.366887271955016
-0.3964401634980539
-0.5779812090483591
-0.36503702523353426
-0.34188857843073356
-0.4203098648964089
-0.3789116266666667
-0.35787574879489054
-0.5935428993324657
-0.49556938166044917
-0.27982722362000373
-0.23386861058964684
-0.3414172366191355
-0.2836180752221535
-0.5648479688193666
-0.3709910824229972
-0.13204574259548837
-0.14443460518726678
-0.2778065372090204
-0.22230844833694455
-0.04355499001042393
-0.22710125127930167
-0.5075792918151547
-0.12619863425098418
-0.11257714674949147
-0.4258317230647413
-0.11211648902484427
-0.325460684803769
-0.27974063241676744
-0.5506076472411661
-0.359496352601073
-0.5562199073042602
-0.5060300252818303
-0.35234365951854413
-0.44576139589192454
-0.4585182008875514
-0.32250796849982416
-0.5659336435187877
-0.4073934347347515
-0.27893374321140735
-0.2527355052600752
-0.29840693374431476
-0.4793671331040949
-0.41309115697435134
-0.1438758699749629
-0.3419386129580512
-0.4923241319444444
-0.45925849215698406
-0.24479984817415312
-0.41246321864021523
-0.5823213473858238
-0.49352293669434205
-0.3531471910588657
-0.5663548003614723
-0.451398804963913
-0.3942996821845352
-0.5834272279396578
-0.5494466213417316
-0.39501347357525235
-0.31659206381657934
-0.48676680214920504
-0.4252526738144189
-0.44157705802923614
-0.3159297812109933
-0.26467382218640984
-0.4573569679788138
-0.5249259339312643
-0.544613008197285
-0.3902777449886345
-0.4482990962738575
-0.40940387001877115
-0.33980405705086275
-0.22953231667700003
-0.38955562218577683
-0.3460254497044981
-0.2968605359206444
-0.35047212516471205
-0.3637433788614028
-0.38814052663525445
-0.37267643211407314
-0.380692723182573
-0.3593552515891716
-0.35093442992590346
-0.4321891036559505
-0.42377791079544097
-0.4225302273675255
-0.3915612423351189
-0.3649969211407314
-0.46420677460848064
-0.47629278483173804
-0.40652755102470967
-0.5544694070566819
-0.6746523238272372
-0.44611338869081324
-0.36875800611963955
-0.46019182399487885
-0.42876227451952836
-0.3367426580963868
-0.5509196251508255
-0.33394090434928
-0.2706544018314218
-0.3774425697458145
-0.3362846222655939
-0.44319476356518456
-0.19365265589359285
-0.1901087227115358
-0.3478081275733289
-0.24362016025497682
-0.0721197604738873
-0.3215122567933592
-0.05970930554834938
-0.1875955803678452
-0.12964611226515568
-0.5631402428187647
-0.414260625702924
-0.42632749934290376
-0.580731565820003
-0.3469992938940027
-0.24693534181743268
-0.5047218648598112
-0.2560591833808709
-0.46612787987601817
-0.5071659990375359
-0.2834518832816702
-0.36314376956633415
-0.1880897893258702
-0.47957490872227576
-0.49204675036164475
-0.2503774056593792
-0.3138167642726153
-0.5405259088541667
-0.5105795573965024
-0.2901561104861283
-0.42005379623889255
-0.44020720000000013
-0.5148461812585693
-0.3821202471713254
-0.441374657848756
-0.4720649857270784
-0.2801496541970499
-0.44412535200110254
-0.41712713326306683
-0.45056424444813997
-0.3308305951753762
-0.3999322101425913
-0.36599660678924373
-0.3808647219334231
-0.3076894131051002
-0.3520565569991889
-0.3628255286458335
-0.379958896773928
-0.40519581360455614
-0.38201667947923124
-0.3690996592840643
-0.30776217778393095
-0.3150877092374458
-0.291475383343666
-0.3509354862670464
-0.34029474332463766
-0.317347088
-0.28423889260174745
-0.37764953502986187
-0.4211008346180325
-0.43305282358614067
-0.37860287092374456
-0.3140903108217952
-0.39112727011511944
-0.47712099758311394
-0.4317608076695976
-0.5124791580358333
-0.3470288707157834
-0.39307277143004465
-0.502091037929962
-0.4152097915141868
-0.4291246666978854
-0.623467231866088
-0.48399990970756274
-0.34399638070869815
-0.38338483605545487
-0.45704224738995675
-0.35759252681739045
-0.385049811839675
-0.24721888333026357
-0.35361392335882
-0.37679808281365496
-0.26767952762332087
-0.18101041491380465
-0.383025950632264
-0.19746127678736639
-0.12486016254184752
-0.03730911349028295
-0.39673066666666673
-0.4446900119756942
-0.3171171901404184
-0.5162907094629978
-0.42166817841171417
-0.14235994877715893
-0.4586321210994004
-0.29234286698566136
-0.3036548318179407
-0.5228940931990883
-0.37428293333333285
-0.46593610291382515
-0.17370650215935468
-0.39995310005383716
-0.5457374445133293
-0.37436718784872847
-0.24127115389178955
-0.5422511147490869
-0.4115468453892959
-0.3333241672351422
-0.420478
-0.26351999999999937
-0.3775928173683016
-0.41497611382941996
-0.3630355973323074
-0.4655123406819594
-0.2796357159006843
-0.34100867105611693
-0.2475773104759539
-0.3525223776041668
-0.3694079701550568
-0.38194677383109976
-0.3918360039780628
-0.38197106099679573
-0.32208499585569145
-0.3202111442446789
-0.22212940277777724
-0.31314286446344397
-0.38533500158994377
-0.424227692291796
-0.38930677456450086
-0.3049314664184288
-0.2087440425707786
-0.3116011466666668
-0.3072741195213972
-0.34558972928290954
-0.2478345599999996
-0.28698367932472385
-0.40869422976731035
-0.41072601495799427
-0.46201916416882044
-0.3264151911551972
-0.29466853361918227
-0.4065498531320866
-0.3630605810526013
-0.4001137306804974
-0.5147177805331675
-0.3334819507330648
-0.3809001661131581
-0.3365637598982962
-0.30900711231562306
-0.4296804326815553
-0.368540964970487
-0.24666598348933957
-0.3371481337631732
-0.33454936695308835
-0.2793762547366812
-0.2677001752695957
-0.34879651237805215
-0.18709556090101312
-0.3552414599044264
-0.1388185030825831
-0.21854666666666625
-0.4227875720168466
-0.29949653916690705
-0.39740020318769004
-0.475909573490439
-0.19178799545360548
-0.3448371805469435
-0.39694462990300194
-0.2005327664602322
-0.4528621460016488
-0.4710734399999999
-0.4389939749948332
-0.2834146898668332
-0.2623533011345192
-0.5418588127814828
-0.401921178962595
-0.2582309218191379
-0.413426429326394
-0.35058419728439455
-0.41773947872523703
-0.5427100000000007
-0.21246030832816695
-0.22411257638070806
-0.38652243581232354
-0.3297612146508549
-0.4467730864151532
-0.37269830559482015
-0.36350844805495836
-0.21393465634674003
-0.20971771267361083
-0.35310586325983073
-0.3531992551986747
-0.440525420374228
-0.3382199312188559
-0.33206745036577795
-0.2099747664806776
-0.20730433597840003
-0.3653053581844478
-0.42955652727155186
-0.39705476279069796
-0.3916322195914865
-0.3610207884815387
-0.190343195221533
-0.25736382222222226
-0.31002668743048817
-0.325192951711786
-0.21724674213680506
-0.31987397045660715
-0.30203092496105266
-0.33351652357808353
-0.407243333333334
-0.3114260992030165
-0.2832445357463201
-0.2333056332115471
-0.2127723604075156
-0.36443874201748455
-0.29070977298797746
-0.22030933458808055
-0.15054657549907058
-0.32683286458333377
-0.27559096404215777
-0.21600053951834655
-0.2293295012208619
-0.2805003999999997
-0.3326342730814713
-0.3315454143418054
-0.1685179575669904
-0.3408638148820638
-0.3428837123453319
-0.2812150528476139
-0.4734210062276687
-0.345623050216987
-0.25216621252651095
-0.4195851417374213
-0.24322470422123574
-0.33420522180229734
-0.5214463123372599
-0.32147160307403727
-0.3964991496843578
-0.2559828250371445
-0.4696365705070926
-0.32199675256185784
-0.421683966545118
-0.3542215729166667
-0.4927985347304036
-0.43184735692481296
-0.6042937673072949
-0.30822000991940485
-0.18346667595195065
-0.2926496215123493
-0.31643139513211965
-0.3718872404595068
-0.4458567263431732
-0.42574340721234094
-0.3280176117477281
-0.16100044267694044
-0.2762541317922101
-0.3227987132548049
-0.39438711926057923
-0.30208530660177757
-0.30651499618378425
-0.16183281370931335
-0.326858414559762
-0.41057892856584277
-0.3587897885173921
-0.28765799999999997
-0.29368574647735124
-0.328334075799358
-0.2992884577281841
-0.2149905823792796
-0.31962339575838167
-0.3007365917449926
-0.27099617098574075
-0.22968535486509248
-0.1496566776766698
-0.2577373927707854
-0.30125500013452383
-0.16859561986061433
-0.060455043451411304
-0.22430566406249988
-0.16288736613028404
-0.10599799523950476
-0.21236320582765034
-0.29962984000000004
-0.20004504992516828
-0.41313802107873526
-0.285126170696425
-0.2560384792648846
-0.3425920322603994
-0.2569553384337091
-0.4087408087799123
-0.467160941264066
-0.31945609662374563
-0.3350577842512654
-0.3459808869593984
-0.31722694911101784
-0.515991126679066
-0.35415235263680206
-0.3845018214236599
-0.3969815569996235
-0.4479541091134533
-0.35888238608007356
-0.49032505297394025
-0.4332695052083339
-0.5775503735806645
-0.43397431952113846
-0.5341793955362678
-0.4065545091961153
-0.28969578515033856
-0.19940524056233175
-0.2976445265778782
-0.31821822574912156
-0.40821441002479636
-0.33636805179407486
-0.4446542996509688
-0.2685931152444654
-0.1968336283582545
-0.3122910102913823
-0.3296166323498872
-0.305946702635143
-0.2520060730348896
-0.26923025061121836
-0.4345202683101606
-0.33475359804414945
-0.2069579303575116
-0.1948467244324217
-0.23302680502512804
-0.3786043579308285
-0.2700506199214712
-0.28835852151664415
-0.2869963071965008
-0.28428756763794166
-0.12150316876758493
-0.1531366915337944
-0.2257041094278542
-0.08860809963206662
-0.14792676268306923
-0.11879640062302516
-0.25000993387063414
-0.3581726255789806
-0.4143379313907838
-0.28087459263682985
-0.2687415426317659
-0.3124055348110162
-0.3850799427142116
-0.47576506275794184
-0.4511491002596057
-0.30766578205405265
-0.343827250527493
-0.3938096087923648
-0.51417704
-0.5096092624034527
-0.3457066572940539
-0.4210957100629409
-0.4504679458565819
-0.5350241466059575
-0.4110495457378221
-0.4235315275006248
-0.47252763842200357
-0.5171892746592214
-0.4884446435213886
-0.33915261643410904
-0.43599813820151406
-0.21229598684545026
-0.23976954859688546
-0.3325678711717297
-0.3581157463310856
-0.18943832506716254
-0.43882928779436736
-0.44744454733387345
-0.20957472905638172
-0.27117886169463973
-0.32214438886132235
-0.2825087662792538
-0.23559655209677222
-0.4357038196845863
-0.46288601939626356
-0.2498562379264553
-0.24456444094504406
-0.39329427815632356
-0.349631397299718
-0.23977266095190877
-0.266777238009344
-0.27852398884547797
-0.22148461988298382
-0.2029503552505401
-0.2605593961562302
-0.31104747820169015
-0.3880291121447034
-0.39503851694210135
-0.21846587522090688
-0.2955524723231469
-0.41174858567441835
-0.4440707848729076
-0.4543718300545789
-0.392500956035317
-0.2668482664547201
-0.3584639901549948
-0.4855046666666664
-0.543793294815221
-0.3931229419955021
-0.2969051936205658
-0.35179368036388664
-0.6010088146827056
-0.3600409013692365
-0.29437453914483863
-0.36341524473860237
-0.5499468267444402
-0.4796147049095608
-0.23361999999999997
-0.4999107226343333
-0.3349814310182149
-0.19843003362873823
-0.298218962439351
-0.35632656844383975
-0.3947022887965775
-0.5861986878404929
-0.3053171405052418
-0.22922455993164634
-0.28718496964938306
-0.2304746374617109
-0.259417135447477
-0.5580988620425237
-0.49194426822916676
-0.4819047389956603
-0.4126402664599482
-0.22051290059008585
-0.2876855348726139
-0.43260376000000006
-0.3833651890886547
-0.3241100000000005
-0.4821871990963746
-0.26226432731004407
-0.23834141359248953
-0.35686212113734417
-0.41022001239925576
-0.40519723289935883
-0.4701935140285746
-0.25358985447449006
-0.26285918794205393
-0.3790043480884488
-0.4640036887786732
-0.4456131823519603
-0.216642778597227
-0.24244161081364257
-0.5011834159950403
-0.3665993195874932
-0.21025058929563165
-0.3644976505184059
-0.4627936950904395
-0.43516
-0.5123229377725425
-0.48686373925411114
-0.2189461384169604
-0.2648540772549755
-0.31566809651663513
-0.6642835416666671