<?xml version="1.0" encoding="UTF-8"?>
<VTKFile type="UnstructuredGrid" version="0.1" byte_order="LittleEndian">
<UnstructuredGrid>
<Piece NumberOfPoints="1536" NumberOfCells="6750">
<PointData>
<DataArray type="Float64" Name="f" Format="ascii">
-0.7033931779196888
-0.7096
-0.7099345097585278
-0.7078918922437842
-0.713805972471945
-0.7018871026490087
-0.6441061834225231
-0.6180624869791667
-0.6532970601330697
-0.5120192820216519
-0.44918987600743954
-0.5407878452184908
-0.4109450451815575
-0.3205772
-0.4274815679087363
-0.3937289736095368
-0.2908771977681339
-0.36207958975469967
-0.6747981329944565
-0.6016715230419515
-0.6451522521880096
-0.7125037178767362
-0.6363766036371156
-0.6450767095353187
-0.6950554400758177
-0.58327906724649
-0.597010711962582
-0.5937356728551291
-0.49901255445339926
-0.5980629782256904
-0.496567346613695
-0.43611474524704835
-0.5731746751284098
-0.44682100635375854
-0.5166108825790452
-0.4528763619957545
-0.5852556749293483
-0.5004231587104775
-0.5901531342540612
-0.6238539190809462
-0.6812447812973335
-0.6272422740162932
-0.6414904671381563
-0.5618371481711097
-0.7036683646697953
-0.5891615724186121
-0.6289170855843369
-0.47858191295722263
-0.6506479417057264
-0.46374420479824846
-0.5336005504370048
-0.3435917062563971
-0.6080749762688371
-0.4697198639754791
-0.45496945693042407
-0.5544341952767701
-0.5008346636202139
-0.5005262206654831
-0.5277119921884686
-0.5405940083823737
-0.5220629811995995
-0.48806906385616877
-0.5570529116499767
-0.5643802143689973
-0.626020907984817
-0.5462088825843187
-0.5768978926808732
-0.6573934715059058
-0.673353730037134
-0.4868148097307377
-0.5194105865607982
-0.5212825315147754
-0.6799562301744918
-0.6376113623922172
-0.402062015209754
-0.5312805626862166
-0.3160826607127693
-0.6185691476612849
-0.5134506549749545
-0.3545255977445532
-0.3870842702324637
-0.5543724581436874
-0.5249483031756655
-0.31131985933786627
-0.4973098332761881
-0.5478238547360749
-0.3541192844740118
-0.5436396800573116
-0.4716146106220291
-0.6063708974586137
-0.49101672100153
-0.5132233333333331
-0.5203927083720832
-0.5487262418582101
-0.46915970920138883
-0.5030254862803601
-0.5709836206400979
-0.585954638196622
-0.5905551924636897
-0.4243995980574497
-0.5033769727711911
-0.5861187090529043
-0.6313891619106043
-0.5986808605640235
-0.4271042666666664
-0.3483408939808185
-0.41338666666666757
-0.5707764202250876
-0.6214212944068628
-0.5309270680875512
-0.4592396197561471
-0.4095647860343145
-0.5710685066388669
-0.548942320850543
-0.29450763263207497
-0.2659898960464591
-0.48018095210038353
-0.5630868138789539
-0.3386923796561374
-0.2259887413194446
-0.5598032268050909
-0.45559326883527146
-0.2827139966935318
-0.5584712453412458
-0.4266104000000001
-0.5883513329200251
-0.4595387747397713
-0.543058
-0.5520854126108253
-0.49085417470777476
-0.5348700885416668
-0.4567217652959281
-0.532907907588653
-0.4978991394916307
-0.47136531483473343
-0.5138414961032282
-0.5099020616953308
-0.5310341413152125
-0.5415393055795304
-0.5779184087968207
-0.5016635999999999
-0.38111161145211264
-0.42297608755085564
-0.5447049081203476
-0.6326319523354104
-0.5778913749946608
-0.5627343397396157
-0.22204440850287985
-0.28607199999999994
-0.36479822638775267
-0.5779394447346285
-0.6422845003399691
-0.5396879307326002
-0.5529168363207216
-0.6170331530545566
-0.40223199699778783
-0.17420082127551148
-0.2076234362948726
-0.5970900988714749
-0.5279921107395769
-0.2388664401766094
-0.22101045833333335
-0.6136986265930204
-0.3897714195024839
-0.3195615232486051
-0.5372538341770577
-0.45093856
-0.5591243632982021
-0.4805596408126149
-0.4858982765034092
-0.5528791185106421
-0.555204921136612
-0.6120235561472649
-0.4024451322587313
-0.6242746274695103
-0.5587687276330068
-0.3944580650448486
-0.4470941506054788
-0.6476446168566593
-0.4893414955156023
-0.4860016035093017
-0.4061280380220828
-0.48489326971379837
-0.41137544912860796
-0.4352472326578946
-0.4745079625410183
-0.6301181498151408
-0.6280839439303949
-0.5215612650546605
-0.32145395093723567
-0.29244620229528295
-0.4061765020443235
-0.6372432809182308
-0.6863904623820343
-0.6085708724821962
-0.2501080207266906
-0.3284674509196122
-0.24190520294632992
-0.4851489163371047
-0.7369460623094012
-0.6324338752105881
-0.68817326628566
-0.6314283297053401
-0.3234870118686548
-0.24674397646842386
-0.2950803122048349
-0.6931653393706599
-0.5028333215264856
-0.31790918905418936
-0.32828283327709634
-0.6283518567435371
-0.4377366873945483
-0.4477906885577987
-0.5402494436051474
-0.5549727195701596
-0.6026849697628809
-0.4558010782847208
-0.35571125852448915
-0.45224597227687374
-0.43148132816697693
-0.5782221334261911
-0.5679668043446914
-0.6904925314692855
-0.5261724766047003
-0.45202664557159616
-0.3645980781153133
-0.6763710778190606
-0.4361747007646209
-0.5441386221894488
-0.2994375856288149
-0.44846225754690566
-0.5940073128990503
-0.44849696020540936
-0.636679024365986
-0.4113771675678191
-0.36894986108799693
-0.42274044637321767
-0.419412908245505
-0.34167778268081483
-0.3922873857327544
-0.6394597713267398
-0.6438807269353171
-0.5591618290102655
-0.4394447232256739
-0.3468633714227296
-0.30437693191064796
-0.5739943486615449
-0.7663642311221328
-0.5834730677769627
-0.4536559806779141
-0.5382018247571799
-0.3161821961329281
-0.41379416900001514
-0.7528438625912003
-0.7121623960441276
-0.7603301713316862
-0.6175432290142594
-0.38109626430862975
-0.4635139758969887
-0.5558252068835472
-0.724418581267848
-0.5124480251043603
-0.5036253019590631
-0.5653410913767035
-0.5893639073622596
-0.5454761624939662
-0.6179433634458571
-0.5602719192891662
-0.651748082289729
-0.6393874684679284
-0.34408307381256836
-0.324708
-0.39523946816293615
-0.4734271459519051
-0.5034223281249999
-0.4663635932590476
-0.3803589770613764
-0.48352507261091465
-0.6256133084977763
-0.49039354618722886
-0.6268523859108939
-0.43249199999999993
-0.5523655258759946
-0.3134543840825809
-0.3902548501756567
-0.5445235405578562
-0.4137608431494111
-0.5715764890054089
-0.4095269000027446
-0.30056404685046645
-0.436248864090377
-0.5035222138507777
-0.5048251846348643
-0.5637427136705834
-0.3745897795338011
-0.34654751273927054
-0.43270708431494115
-0.57376676747308
-0.34599518605845153
-0.32954442850408205
-0.6090260202368293
-0.621112672386857
-0.4237065990118755
-0.6368903901806559
-0.5712414830402021
-0.3059813197724545
-0.4830498846178215
-0.7826810150030997
-0.5608876943875494
-0.721596243826673
-0.6897899999999999
-0.5380679932744049
-0.38924890008663326
-0.6855714523386385
-0.7519501760716568
-0.7434682476004256
-0.5557355390204588
-0.5303955705097702
-0.7238903560734845
-0.8083773786347573
-0.6505390834843522
-0.5410243362420252
-0.6782811280049956
-0.8119588489583335
-0.519527727184364
-0.6057263453760021
-0.7526904116553007
-0.5364473890563931
-0.6835459200000001
-0.6005528096714198
-0.3534324431355533
-0.39005333333333364
-0.42162000537334426
-0.4056352187123026
-0.44476979365421326
-0.5044628168402777
-0.58259045816138
-0.5123837952056212
-0.41021795418873647
-0.4696693084359145
-0.40218238561686354
-0.349648276176546
-0.48245299817938486
-0.6041290840656081
-0.4668109333333333
-0.5436812705396078
-0.4104555259351105
-0.4911338974062845
-0.36268259288202187
-0.3195956595956167
-0.46105999999999975
-0.4735115287160572
-0.40618497931516484
-0.39779384438463444
-0.3902927675580788
-0.3876224399115457
-0.4244373717710274
-0.3125350453614621
-0.36132000776790574
-0.5450457955972775
-0.3962067520254624
-0.32744476452477217
-0.5812028711132061
-0.7021101277462024
-0.5249303125821351
-0.29256898104646734
-0.5541872036233381
-0.6335802295680927
-0.29176289377698733
-0.7285907320974641
-0.7734974982578211
-0.46172946794072683
-0.3885173528673505
-0.7083699555555562
-0.599697339717195
-0.9018812121773511
-0.6472699999999995
-0.7652902283819176
-0.44549906263845845
-0.5522695763752842
-0.7100691044981753
-0.6511747282665495
-0.48617381688768907
-0.6864495418332925
-0.9163577027751728
-0.869629269431872
-0.525703591449383
-0.5654088259341629
-0.7831491661522089
-0.9265493359374998
-0.44802371730350665
-0.6182351926178522
-0.8281777836329826
-0.4856464128444626
-0.6956201333333335
-0.5515228476958047
-0.4563402610205231
-0.4375206406282287
-0.4375836749714415
-0.47511025194835454
-0.4808796404215747
-0.46331055686316586
-0.4444586705886389
-0.5558575542467455
-0.5456799134932994
-0.47291872126843365
-0.6308721881136948
-0.6395135518231799
-0.5784866179602013
-0.68965
-0.6983057796515595
-0.6868878888957776
-0.4497236431080796
-0.5006539187441246
-0.5096375625909495
-0.4735592575814123
-0.44875633785083485
-0.591211234356361
-0.522661393671639
-0.6010212411888193
-0.450221475428808
-0.5267557770873167
-0.31986179720468483
-0.504354953258299
-0.5122286666666662
-0.3703250110768528
-0.3025730921234018
-0.5441919627088988
-0.5388885583758722
-0.36892403181066463
-0.4548110549955107
-0.45606944327340443
-0.29521395346885887
-0.36293751451479017
-0.4772352784838893
-0.4766873333333328
-0.3314027142053488
-0.20883916510127035
-0.38788588797873813
-0.4954814565972219
-0.4248041909603812
-0.5024748034258405
-0.11540355621484212
-0.37296554901916434
-0.5737390737755738
-0.4030787317708324
-0.4116989415127363
-0.6937671770396089
-0.6842690721223397
-0.7037033403579582
-0.35301380069903493
-0.4718214013225866
-0.6294768000000004
-0.3425764065351777
-0.670191024379826
-0.830087440651461
-0.6706895574592161
-0.34483240134204424
-0.5705658133333332
-0.612221958255838
-0.9075376343120926
-0.521144810911346
-0.8720770374867616
-0.5943921835978311
-0.40381646073240424
-0.6243254990700561
-0.5139565112895909
-0.5019756820991917
-0.7729854488525566
-0.9659273972750692
-0.7205412955114907
-0.43991772888992114
-0.5947045354742714
-0.8189799701594134
-0.8187187720242873
-0.4184568979271412
-0.6163231555941331
-0.7812051385948054
-0.4363468522441802
-0.6736472069435838
-0.528391872837289
-0.5792657053798996
-0.48493264816685105
-0.5099167929679427
-0.5779043706664367
-0.4466320853634595
-0.5396041906377548
-0.46669942274628
-0.507150231301298
-0.5774832121029823
-0.42345517680513195
-0.6172392256434107
-0.6033233072916665
-0.6864175603984343
-0.513336165800694
-0.6173970035131229
-0.5110050061996282
-0.5765889684960324
-0.540173070605991
-0.5003380718416971
-0.5312921820937564
-0.3870873127148648
-0.6303347801876685
-0.5356449100830615
-0.3946150571605704
-0.46955661767759566
-0.3016224031284099
-0.6327051434190873
-0.4094293353506339
-0.3569364917044134
-0.5877299056278843
-0.5601032000000001
-0.5329295232179997
-0.32759850162639004
-0.41730454414515683
-0.5496938990976102
-0.417865166603069
-0.4342312856184484
-0.30725053748295106
-0.3065874901600764
-0.5263065157946994
-0.5759301956723916
-0.4653209581869531
-0.17109214062432135
-0.22382279226661309
-0.5151521294987701
-0.5715926812499998
-0.4114034570470058
-0.6018056082611478
-0.16417849050444702
-0.48399696120410424
-0.5705733966522005
-0.38929438446178705
-0.5330027465397583
-0.631365727216367
-0.6117335052007993
-0.7033112858375223
-0.4838038000004185
-0.38603578213590134
-0.5745681759999998
-0.46919727612080564
-0.5358126433346929
-0.7859143599933099
-0.7429963022601195
-0.42692640288131395
-0.4149224086243705
-0.5895390291382515
-0.6960321121454567
-0.47299970861748275
-0.850243342604522
-0.7180205348042041
-0.38463622266170877
-0.5059556358167584
-0.4206181223878054
-0.605702841215127
-0.7699239572173994
-0.7789001264605049
-0.532904360239055
-0.45023579447291434
-0.6044670853344348
-0.6982790779362502
-0.5751067927257695
-0.4165934896310502
-0.515595358410088
-0.573159211965013
-0.3295358474145365
-0.5275969283323
-0.471652416127258
-0.6113794688985329
-0.5837899426632641
-0.48253082751705145
-0.47614068252280156
-0.6027536576889292
-0.5113050209239239
-0.5153744249820792
-0.4535897121703345
-0.4980616427169358
-0.5230925858250669
-0.5873779018698019
-0.4381330130192188
-0.4570528840015519
-0.5773325839108928
-0.6346698069358115
-0.5919946953287775
-0.5195427809942149
-0.5620743056416615
-0.5259764261210994
-0.5480438960963133
-0.6098280841845972
-0.466152953625628
-0.35846177069642465
-0.5909758248949508
-0.37957228111202207
-0.5790645204262144
-0.5982439915291878
-0.3866784851994074
-0.28463751431493994
-0.35320954479440175
-0.540739383905617
-0.5822629090617452
-0.40704172894063895
-0.5041662175161276
-0.6165524217813602
-0.49397965654060716
-0.6350728158958657
-0.5067752641900793
-0.4135161759841097
-0.48729904724116596
-0.48422554766956843
-0.36466919977907425
-0.2989728453647453
-0.474978019211159
-0.6477926981504982
-0.5177890657531362
-0.5074921960460151
-0.191999995847185
-0.388651380450506
-0.6112120758220015
-0.5384950839231588
-0.4069995651079737
-0.5709232982021074
-0.35245699749499465
-0.5566061979913203
-0.5206143528488371
-0.3843847015393054
-0.5312394458454536
-0.5374088169043186
-0.5309836034320414
-0.6139961822116115
-0.5328399134285443
-0.372912974498739
-0.5034495683901631
-0.5591615958098765
-0.4631043444882819
-0.6109846977746684
-0.6674122512520335
-0.5555279827557059
-0.36315997159192626
-0.5475205792836846
-0.4511626784846338
-0.5116908638148381
-0.6577446642384017
-0.7059447733513232
-0.5258131129406892
-0.41733732481161007
-0.4504448543774125
-0.6548117465178755
-0.6132699269545783
-0.4664261452013078
-0.4628801789406347
-0.4897737853360542
-0.467566461488234
-0.41112630966154384
-0.41194755300762603
-0.2983898660053538
-0.27241555717746296
-0.37469000247363665
-0.17134659851539372
-0.3605255309361431
-0.41262599651173204
-0.5858001639457191
-0.600038941124788
-0.5399810356086973
-0.44761863288835363
-0.33424630995348853
-0.6037989934540694
-0.5577343354912573
-0.5545088088331488
-0.47326967495099187
-0.30934600000000007
-0.5660812897058377
-0.5598179522165226
-0.5904170059459983
-0.5181905712775865
-0.5553188110726035
-0.5515618831648285
-0.5933036474585834
-0.4837853347964414
-0.5747716053965065
-0.549275978507956
-0.5516446666666665
-0.510695081930045
-0.6124035460940468
-0.5252398604256937
-0.33241725995175736
-0.2850473358157477
-0.6191499956602604
-0.4775178032529392
-0.5393704689518112
-0.6010737342575202
-0.4663798146762575
-0.2974300097976926
-0.43133117320640585
-0.5462909924857796
-0.5370223497450736
-0.5220598871527767
-0.6082926255976772
-0.5277663149122979
-0.45094345071295727
-0.5734679667312347
-0.6367185498545352
-0.5077121268857195
-0.43740429970379613
-0.4760535504285122
-0.3374735097556067
-0.3828331999999997
-0.6000758876509278
-0.6220619095482774
-0.40249566523650043
-0.5192560000000003
-0.3049238445959905
-0.5099069323413931
-0.6094881525010968
-0.43874959381188927
-0.3873880659681325
-0.47590423503478624
-0.4962861583179245
-0.5749351202385123
-0.4735298529756105
-0.3700089227430557
-0.4457171718041019
-0.48528797529232376
-0.4866227166436247
-0.4799091395960355
-0.4638630194717818
-0.42678782537714405
-0.48502281609423453
-0.607478984454751
-0.5048785672356882
-0.4250953964841686
-0.48727586344851836
-0.5748918802390895
-0.44586538666666636
-0.5157205397343115
-0.4022025242293897
-0.6019476702842373
-0.40688407116957964
-0.5367463796501073
-0.62102493804505
-0.4130566526141764
-0.5042898833140066
-0.5104613350377906
-0.34255077403015205
-0.3268503108966467
-0.53470434252989
-0.38387617470226193
-0.18556490819190052
-0.23716006886264482
-0.4205443437836453
-0.06931667114538251
-0.1371772176860063
-0.3143242974591138
-0.15196746247379453
-0.2783578061395352
-0.3549112335369441
-0.5831844444444447
-0.6028413145044279
-0.5885898156019542
-0.5018627555049201
-0.3390892627151328
-0.2725900371977681
-0.6273354846042568
-0.6128795479547992
-0.6109778278088225
-0.5198393736403907
-0.39662345501064383
-0.6366345887580077
-0.6001852354962351
-0.5801061914928366
-0.5586257400663424
-0.6102762805676104
-0.531325834096732
-0.4927845511364372
-0.40594608112027514
-0.5495425178294581
-0.45847000000000077
-0.5833387999999999
-0.5528213531182616
-0.600386149242643
-0.5810393347679631
-0.40164114688950225
-0.2873514659852007
-0.5600004464594831
-0.5789787775311551
-0.5728102097800926
-0.5690520097062629
-0.5304809524583084
-0.3571128998026442
-0.4716302875468967
-0.5043353862254314
-0.5377914166150036
-0.6106692989583333
-0.585727698576298
-0.407779085050723
-0.44560079999999996
-0.41181672270789277
-0.6266463021729028
-0.553336717048977
-0.4127840888888894
-0.4360177010965343
-0.3260804470620656
-0.41531708800000006
-0.6091917231949807
-0.4835597588926193
-0.3254778756525514
-0.4631577777777774
-0.37488891184128953
-0.5552362879788758
-0.5476656417724146
-0.35608976666666686
-0.34536709267640764
-0.4382956054903841
-0.5872738275383506
-0.5869133775033363
-0.45763479342839425
-0.3352103602430556
-0.37296476776689796
-0.4712092557525284
-0.4869508914853278
-0.39520566091368914
-0.3464876487286215
-0.45861665254529177
-0.5035093279999999
-0.643695007118419
-0.6125896935183376
-0.3906728518014298
-0.3501247932816786
-0.4572075975036843
-0.5261649777777783
-0.48425111816491023
-0.513735396695843
-0.68778
-0.33572004752820034
-0.3344651882238334
-0.527559197531851
-0.4362653509678311
-0.4403812450200543
-0.25350659676608495
-0.23987818717952
-0.39459579582736093
-0.6709123231446463
-0.15992125497666035
-0.08481023045729247
-0.2790826547506506
-0.5553065104166667
-0.032470063590659966
-0.21158975208976294
-0.38935389026658407
-0.27407609894837487
-0.2843308
-0.29169849349039056
-0.5712506666666667
-0.6390678610163074
-0.6324258613425237
-0.5882257695129277
-0.4090815635787599
-0.3285224611663528
-0.5850296491010539
-0.6672405737177436
-0.6433598722929371
-0.5551580563570866
-0.48724587489150645
-0.5947523217606943
-0.6211204033730113
-0.5387990293054196
-0.5105541055931562
-0.5427894106220289
-0.49231817755387314
-0.3709476048501322
-0.3325017343501359
-0.4336535760206725
-0.319762
-0.5652943835503201
-0.5918804872796416
-0.6121183818970857
-0.6087053229343019
-0.5175359947291759
-0.3537890686421021
-0.4372298689340474
-0.5939830008918073
-0.5894541961805557
-0.5488018112486374
-0.5547261899767685
-0.4663769907342295
-0.49197845682020963
-0.45653407367913507
-0.49763111531308074
-0.602395211676127
-0.45961541779765086
-0.3312444209547422
-0.431168
-0.2819242252357262
-0.503040024857425
-0.5356148982836294
-0.34289455999999974
-0.3803728055949626
-0.29049632568712525
-0.44042666531928104
-0.5426251001088852
-0.36817958929401756
-0.3116955560377788
-0.466250488392918
-0.4646639049849038
-0.580810806129522
-0.5024312594500769
-0.3447785104166669
-0.3722109967727085
-0.4839813361396296
-0.6765086655197897
-0.5822551197933455
-0.4809293066749329
-0.33252715856302034
-0.41232791752394676
-0.44405689214722727
-0.5146746263297832
-0.4029613740994022
-0.3335964588970126
-0.4455593232290537
-0.5341786933333333
-0.6245183878148551
-0.6947805104676873
-0.45716330923379317
-0.3670014599011509
-0.3532056277721329
-0.5324125257009021
-0.46962862450919646
-0.6636121954831912
-0.4147685765448675
-0.2940358222011025
-0.36826646530187784
-0.46249239349159027
-0.32155527477180174
-0.16360355908658042
-0.3448156942721842
-0.5681907386746978
-0.0929656114447507
-0.2454074718877711
-0.435469988872394
-0.22887701998457957
-0.35093501457002946
-0.36683536901957486
-0.5286612602466071
-0.5971436744526346
-0.6480672057625333
-0.6363902701200689
-0.5102726825075335
-0.4230266673937355
-0.5063566479142543
-0.5844566923575752
-0.62282719538856
-0.54906460430577
-0.523276465468072
-0.5094617757373284
-0.5224860137935731
-0.48372072379504155
-0.4055938384845077
-0.44133215600904546
-0.3823701131378397
-0.2995395703125002
-0.24202335321470644
-0.3475919056895073
-0.314487736102501
-0.5187891725563137
-0.5668736104074751
-0.5560145051819633
-0.5888442821983176
-0.604975371695318
-0.502491389253244
-0.3275494633188671
-0.5417869759696926
-0.5434800092406923
-0.4734994430081994
-0.522648756106634
-0.5848151898139247
-0.4589869654204508
-0.3686188255094025
-0.43834370261978955
-0.5222261368645925
-0.33596857715079964
-0.3227976200316865
-0.4723387902459181
-0.28371808339563803
-0.3978240516813259
-0.49945524429173654
-0.3338103029827098
-0.3153382365762162
-0.3607916138218527
-0.517651745162223
-0.49496666251391547
-0.3911380743683599
-0.41091938298650116
-0.5773967441620166
-0.623551116872404
-0.5857970540442244
-0.5355224813161316
-0.4288745417371651
-0.5234408183167526
-0.5189175187670397
-0.6932862442515074
-0.5815589001033277
-0.5402149055725798
-0.4309162368836421
-0.4926560330336454
-0.40031326578622356
-0.5815786247158511
-0.43002107638516257
-0.39872953612460377
-0.45137939721333115
-0.5969665369043186
-0.57451137727553
-0.5882830183054377
-0.4370536691857303
-0.3251260106408606
-0.5101805483364323
-0.5484309030814539
-0.5719390399698413
-0.3787534959991332
-0.28900501174283993
-0.4997673495174491
-0.2851342790141932
-0.2658252186829166
-0.5160765238593433
-0.20219677533461086
-0.4416233555280015
-0.4017848375810205
-0.5375801608459047
-0.508357814616227
-0.537191976102371
-0.5887488833546205
-0.5937448970807538
-0.540784374727349
-0.5462905586320942
-0.46792707880134726
-0.49070646851374633
-0.49807858306396285
-0.5150319344492661
-0.5680956000334126
-0.3971953779958241
-0.37475916860330577
-0.3506989191981816
-0.4702348094745012
-0.2880555952857111
-0.2536386744791667
-0.257233807294941
-0.3969827486574678
-0.48034058173176175
-0.4730451999999999
-0.5407639747998049
-0.46778320654124056
-0.4853360980557842
-0.5656727917613841
-0.673244783261044
-0.2885683199008056
-0.48893505935891873
-0.47800517652570745
-0.3992762471656039
-0.4379336938623682
-0.568296067524315
-0.395935096952881
-0.3516513932618323
-0.4185866663219222
-0.46779915104166675
-0.3315805047035376
-0.3654329652910077
-0.5900344903905764
-0.40913229930178496
-0.4377723240209756
-0.48719685158090503
-0.4470123953984971
-0.37388437389042034
-0.5632165846891083
-0.5690836479999999
-0.5319760915578554
-0.5202438299802185
-0.5971995799063401
-0.678645733967073
-0.6935466380657161
-0.5710131491217195
-0.6136926449603591
-0.5682515468822656
-0.6300751489047625
-0.47664217331789155
-0.6107222925867399
-0.6223388904331452
-0.5878697785589343
-0.48133320716883965
-0.4993238829122129
-0.4573730533168011
-0.531505227387665
-0.41465481211939625
-0.40407279099239685
-0.6216473107749535
-0.6044619605888604
-0.5606835295338009
-0.30993942229199134
-0.4429736408486591
-0.6211655447689629
-0.5218088478637036
-0.2658638995551756
-0.5073993275891212
-0.2847767007801903
-0.4196865650340981
-0.31353691858308713
-0.576750666666667
-0.5131159015748529
-0.43051569352501723
-0.46229234468131736
-0.5647955254849273
-0.6526131511534398
-0.6371187414755111
-0.5170168247095628
-0.3892446303441377
-0.40878493434545876
-0.48592240000000003
-0.6927170378177311
-0.4409102800699232
-0.3089125918899587
-0.3491356906385618
-0.6005145635461864
-0.36570373521758864
-0.29107281696540105
-0.4635714732967476
-0.5249410354521963
-0.62962
-0.4224446666666664
-0.5606512088370844
-0.43919941840762405
-0.42528285158513396
-0.45130835368464534
-0.6651819052056053
-0.3050082711664423
-0.4785675888565108
-0.48772728385416647
-0.3939644229284658
-0.43326860121001026
-0.45706476669489143
-0.4328686435332723
-0.44672982663497135
-0.46336840752221536
-0.5099454253472225
-0.429915768877061
-0.43841368343935644
-0.7036985455672663
-0.55971262731213
-0.5604219817680397
-0.5221915032031413
-0.5456384266666666
-0.5410300940931319
-0.6672020318247568
-0.5468333066666665
-0.6019144825893928
-0.6281740316872715
-0.6794125937582751
-0.6446520168819979
-0.592153838809671
-0.5811269167730623
-0.620523114818477
-0.576564350548333
-0.5822092769078377
-0.4704230460839019
-0.5728523706325052
-0.5851035868161746
-0.507536973031233
-0.4074518384541885
-0.5290910971725931
-0.4865099161946978
-0.29304530097757636
-0.5227037574788173
-0.5812018298922862
-0.4034571719760666
-0.34164648359689925
-0.5775129362309511
-0.3346596273610248
-0.4613755110856926
-0.2932332477697551
-0.5751344444444451
-0.6027410123236229
-0.4652456075838594
-0.4318495390745552
-0.46010240128165364
-0.6410216429014265
-0.6806811944616652
-0.6772018998714912
-0.46075677344683413
-0.411853983301473
-0.46907688000000003
-0.7555286216160365
-0.6319412197361521
-0.41697863902271076
-0.4279218363025317
-0.6928264758558926
-0.5773896444124668
-0.48489199044385334
-0.7134348110856221
-0.5912106804478902
-0.6137966666666663
-0.42962129861541604
-0.6032022435778209
-0.5211313486472752
-0.4596007624055927
-0.45937550644019126
-0.5165421064794281
-0.34511416827646885
-0.5347136577356116
-0.5821403139467597
-0.4754320210118574
-0.5037285966416949
-0.450363943524633
-0.5244747475015411
-0.5323190281297788
-0.5410232765034101
-0.5925570805106726
-0.5192205874474124
-0.5369359218115953
-0.6922944012403104
-0.5984451422139734
-0.6047450628053377
-0.5793451077789764
-0.5403758666666666
-0.6080221189231895
-0.5737582723703237
-0.5600324268650548
-0.5638597975592141
-0.5810029597681954
-0.5995803199090285
-0.5468666666666663
-0.540632485682626
-0.5084000615523899
-0.4913162900888531
-0.4556079504890727
-0.5239299650732633
-0.49878294070408175
-0.4218513901823661
-0.3641852881178289
-0.41648922743055555
-0.33668946166563335
-0.39988761550387625
-0.43692398661405113
-0.36111693333333283
-0.5087971908530016
-0.44070126265757303
-0.6201678501067718
-0.7070499523290494
-0.6143831861406022
-0.523990930871154
-0.4789250288234415
-0.5627370923744576
-0.7264330314968169
-0.8099139396453459
-0.6504601729604732
-0.5388189971689971
-0.5406501537094446
-0.7395494882680466
-0.7978857823213832
-0.6357573908858201
-0.5813818708866921
-0.6732342906883737
-0.7431834667768896
-0.7312575677083332
-0.8117997674995349
-0.5755218756355693
-0.5240532692705109
-0.4783756063236205
-0.6872618490117136
-0.674316667332194
-0.5551794516974801
-0.5551868182282168
-0.48520825427684117
-0.3989605935508585
-0.5972472813331925
-0.678476499090147
-0.5928352827258005
-0.5527213878239307
-0.515380381981691
-0.5362843457163183
-0.5399073525659569
-0.616527306933389
-0.601017750594938
-0.499915446822044
-0.5671542991945815
-0.5886480000000001
-0.5277662990872094
-0.500979052313225
-0.5512381474815787
-0.572110437886615
-0.5318399848893407
-0.5327817031096062
-0.5478386155238687
-0.39238762251569687
-0.46509879772782253
-0.5430971737863476
-0.5326853565047472
-0.3050707634818455
-0.36699437921484795
-0.46769134375000004
-0.30984436221948064
-0.3116203081158735
-0.40672795040297594
-0.43253168000000003
-0.3652422899504511
-0.5300503905765653
-0.6778062120272789
-0.7945626236193521
-0.7840541718854949
-0.6455523164480913
-0.5979451221671753
-0.5792976180827997
-0.7430021382464521
-0.8055276083254341
-0.8331886015461764
-0.6846579378132133
-0.6466741458565813
-0.6939110607436706
-0.7665468925151196
-0.8247775307524953
-0.7244676354618723
-0.6434081837940514
-0.73545933997613
-0.8776538802083335
-0.7238697089967364
-0.5845188896523885
-0.5036243056416615
-0.4649692498450089
-0.766149634176655
-0.7732582057714218
-0.6754440205116216
-0.6208175266377353
-0.5610289884052547
-0.41127858591301464
-0.5377329077059408
-0.7068801730769857
-0.6681544189498646
-0.5755761897086172
-0.5431711770941235
-0.5021106916172544
-0.5603836221473073
-0.6359819313926418
-0.48477676542399567
-0.41909939132653773
-0.5160705569332499
-0.5231961096168211
-0.40061010183292045
-0.39325526812737693
-0.6304517332506717
-0.4924861215672698
-0.5804065892526714
-0.37535953580491715
-0.2906583676139782
-0.5293784731788056
-0.3807941599908871
-0.19502901923593088
-0.4597365701662985
-0.22606909411586948
-0.4034442420748085
-0.45870739559827634
-0.6287027781222019
-0.8374540226844155
-0.8038013776260251
-0.7707352370537776
-0.6856699273922474
-0.6373104122304222
-0.7130883318817566
-0.743634003367188
-0.8189401633546551
-0.8163862020809609
-0.6989103999999999
-0.69883283454834
-0.6640310012407528
-0.8351705844748242
-0.8238051229592892
-0.6798302022034496
-0.6480914552115172
-0.8265428068250812
-0.5851333528125703
-0.6284694568536332
-0.5389413380863817
-0.3924761889405688
-0.7053620047304681
-0.7885454107076412
-0.6987000487622912
-0.6877990591857833
-0.6119009882412118
-0.37731481814424533
-0.40769026852728624
-0.6221268453952518
-0.684196271682408
-0.5715628856276637
-0.5914346225903317
-0.48945257749701104
-0.5976284584678097
-0.5395512710091565
-0.3807974312599594
-0.42474911381502084
-0.4898779382388971
-0.2932103726919683
-0.5337620432045186
-0.5059310100469815
-0.4922501334152089
-0.24173068134366962
-0.4233533027410071
-0.25772773969444035
-0.3308411852035547
-0.3590397452803589
-0.5076781581395362
-0.8005102678781815
-0.7327758773477874
-0.7732548198012538
-0.7748672912041349
-0.6289379541227528
-0.624579684605859
-0.7343046430838167
-0.6935079153135253
-0.8452345398639703
-0.7390176000000003
-0.6690534004133087
-0.6470001165140871
-0.7066113677092148
-0.8185282324558153
-0.6779790703944535
-0.5897448022913689
-0.6374705361749909
-0.5080585410520065
-0.6445280759030244
-0.6000827762273898
-0.335362
-0.5301369383288251
-0.7417215732282689
-0.6400653288513811
-0.7010676758273671
-0.6886539895414786
-0.37370094686589367
-0.4968185508837579
-0.6352163413930597
-0.525222428059409
-0.6416296644847898
-0.45082688759285866
-0.5405595876540582
-0.4403609639448654
-0.4386956953125
-0.3998104724116553
-0.4084267595107676
-0.43479095289158415
-0.371387974651265
-0.33980064
-0.3396108344699318
-0.404396666666667
-0.646474069905132
-0.7084895017980185
-0.6617962812511425
-0.8267847003299135
-0.6206220582765035
-0.4793988737342421
-0.6659531490174135
-0.6356973871681272
-0.7316073610982473
-0.7601230843562722
-0.5379817978921265
-0.6286862807191581
-0.5802141130422354
-0.65854151149564
-0.600630845215954
-0.5798097781708619
-0.47528703896320845
-0.5429311790768966
-0.6407461943152454
-0.66872
-0.4192262880525765
-0.6308994905730567
-0.5973009624664661
-0.6051235260040767
-0.7754101199320581
-0.4721931119791671
-0.5691246706617572
-0.4516849334479343
-0.5818183732190242
-0.3482950131271853
-0.46834640073589046
-0.4663171740028937
-0.4260984000000005
-0.35527535314072706
-0.38132350072329013
-0.47336281705885147
-0.6589336826584536
-0.5794782187855477
-0.7390922426568877
-0.651643671721048
-0.5182358186334167