<?xml version="1.0" encoding="UTF-8"?>
<VTKFile type="UnstructuredGrid" version="0.1" byte_order="LittleEndian">
<UnstructuredGrid>
<Piece NumberOfPoints="1536" NumberOfCells="6750">
<PointData>
<DataArray type="Float64" Name="f" Format="ascii">
-0.5512985047636758
-0.54031
-0.5540586415364076
-0.5191946607559882
-0.590101485522971
-0.5965958147248802
-0.49249019459050997
-0.5797152864583333
-0.5844763444551965
-0.4867789260644481
-0.5196186329820212
-0.46427409503900124
-0.5602381488085644
-0.47217200000000004
-0.34638314594415803
-0.6086099702614662
-0.4160429572225666
-0.27619471299496823
-0.5384086444790147
-0.4444277929324248
-0.37759838251279604
-0.643377576106181
-0.5401265891713161
-0.27417719232193377
-0.6122972288763086
-0.340284127500687
-0.44751757860207036
-0.510874158698117
-0.5509521008059518
-0.348881498357799
-0.4582013868937835
-0.701007741395694
-0.27919148363158625
-0.4520925441153603
-0.25998521277123376
-0.2697421117580635
-0.3947277798226683
-0.32719140111593303
-0.2619841793138144
-0.5948981735674651
-0.512031264142797
-0.1896629603909963
-0.5845939522042634
-0.5933216243025418
-0.48401856921463154
-0.2978702076471817
-0.45776735061709445
-0.5144101221326719
-0.5024016501975571
-0.4317546912276589
-0.5363234193924279
-0.6306773348863793
-0.4095706750272969
-0.2753624090559775
-0.6068448908706735
-0.37127447320982654
-0.24506049838878854
-0.3613720763740767
-0.31459599851208925
-0.39805392043067617
-0.2773019634717926
-0.3353801136598475
-0.32339713307531653
-0.49021987419307583
-0.42019704170091887
-0.3537153387165705
-0.6467937802804907
-0.6109318773160691
-0.4296140084091318
-0.4826717320183575
-0.5349594031381032
-0.5918733767307295
-0.6035993272636465
-0.47141610221389757
-0.5763877873940902
-0.6062645059017752
-0.5355046713947317
-0.5418187209430685
-0.42976315264492
-0.5104519516653748
-0.6695554156277276
-0.5306040460605405
-0.3989704034640778
-0.3977808885326261
-0.5103433841453598
-0.4122125684833635
-0.3638696106239003
-0.4029723005192673
-0.39744445463938843
-0.47105061801797166
-0.3566377844770554
-0.43844999999999956
-0.4242889356645377
-0.47865702540857785
-0.5179255989583329
-0.38646750010761827
-0.5905475540456006
-0.6333461866794146
-0.521392768125463
-0.688526660467038
-0.6072199356017005
-0.6339463033952483
-0.7067440850836916
-0.5983648319557511
-0.7230871999999993
-0.5309944437092292
-0.6177899999999997
-0.6590363872958669
-0.6758304481885576
-0.6771172725754915
-0.5609242550113657
-0.6414626302341634
-0.6728546689524056
-0.6452120322898955
-0.4617838707311475
-0.5338104098208197
-0.6449279905972635
-0.5933618203754049
-0.44856023072080703
-0.4623190624999998
-0.4938965952605064
-0.4467459063988101
-0.42448462285596195
-0.4433948383693504
-0.39335586666666694
-0.4411324550526972
-0.5164886844951467
-0.47597199999999995
-0.42104743827887664
-0.5321188111666575
-0.49652832031249977
-0.4614013736213926
-0.554600938439331
-0.7059328580285184
-0.7049592274916172
-0.4982269451717274
-0.5670356190123805
-0.7230410523437653
-0.7805313872316347
-0.6752061287440534
-0.7962346399999999
-0.5861283490744755
-0.5787709730583254
-0.8639471141043878
-0.7550467448737287
-0.7447264521324591
-0.6363653031618105
-0.5202256041765755
-0.637506
-0.6334242038240702
-0.8470984467616137
-0.7241697130648247
-0.6521715332318464
-0.6777786170664147
-0.7424598896729112
-0.652928192793139
-0.47358970862202193
-0.5092884331328663
-0.6171378086763697
-0.5737824039453057
-0.45440408313685393
-0.4467832734375001
-0.46561707197441154
-0.4234319342633354
-0.41080219218846875
-0.44619256670100965
-0.3355345600000001
-0.3292662715437073
-0.5257076170459011
-0.38477567989253914
-0.3371669033609482
-0.45901342106658544
-0.3747010925108811
-0.5959643290624782
-0.45037184948253567
-0.5377008337967989
-0.6595396013375594
-0.49075347858835033
-0.6200390788979567
-0.6435490490183912
-0.6374235417245199
-0.7644453907505898
-0.49203754680885675
-0.5125987924502314
-0.6355601173645412
-0.9196131555577093
-0.6492279976279822
-0.7601873568801535
-0.5709216445278827
-0.5915036528406389
-0.500481661174529
-0.7998013161249157
-0.8810842216957728
-0.6878462522284221
-0.7045130533987379
-0.49957619329017566
-0.5764473258937793
-0.5523219117035562
-0.8351408377135564
-0.7533110198037819
-0.6944879862479035
-0.6575100113911853
-0.7063086196903465
-0.5722980179346776
-0.4582541033328406
-0.4909774997134146
-0.5484446631275491
-0.4849798998140109
-0.4539974942238861
-0.4216438334608777
-0.4234344681428502
-0.42672583445966894
-0.36088855608786424
-0.4375026180086517
-0.2594853392849759
-0.1799755866553354
-0.3959128109760313
-0.30517388510022747
-0.27444751011602053
-0.5703722262864231
-0.33588496588470035
-0.2834831515448486
-0.3401224980361326
-0.3475667491400411
-0.48790495351744784
-0.514631229592891
-0.49039555485376246
-0.4140314004133095
-0.39597295981973724
-0.61473013490607
-0.4658217544191406
-0.6217187484923028
-0.4567734870684782
-0.4730507190016362
-0.656654179983491
-0.6612230593362317
-0.4076324095887583
-0.5180037431287463
-0.46882415698582663
-0.8414444769069719
-0.64132698531589
-0.6331370542343465
-0.619135504950551
-0.5755691982288278
-0.4876445202179925
-0.6225940971684065
-0.8635995953066762
-0.6168050097540818
-0.7291491299146852
-0.5128337479172523
-0.5625713411861951
-0.5175957219768198
-0.6978065594367403
-0.7354784433250005
-0.6311689126808208
-0.6030762272792106
-0.5975847325067165
-0.5369763746669408
-0.4759221183771369
-0.5437012630649498
-0.4868420548045069
-0.48580578184748896
-0.4717854301801325
-0.4589725498566872
-0.45763533956896213
-0.44982577717473876
-0.35391858384045616
-0.40629086060894765
-0.24364273932630706
-0.1445618801509023
-0.3342754289312038
-0.37434199999999995
-0.2931723863847728
-0.3015716963537339
-0.2608210130208333
-0.46025075628265816
-0.4949579454432734
-0.3648389959678198
-0.3308765618721345
-0.25597743955362684
-0.3930565873147132
-0.29033912
-0.2983353698452779
-0.4202919548061377
-0.4577676985603088
-0.4248612905889699
-0.3986112969621822
-0.37992762391617263
-0.34882182121984145
-0.5369605452464393
-0.429346573672247
-0.4493338915766794
-0.5119870075795389
-0.38566069158253485
-0.6293034568218165
-0.5191097136569317
-0.3843512548047117
-0.5675383853043839
-0.41756173305191235
-0.6864239978272608
-0.6515591507726749
-0.5077076299070059
-0.5992648012785751
-0.6263972273585757
-0.5716007279635917
-0.5354208154004249
-0.7728968873870056
-0.6005334486739696
-0.6308642937889567
-0.6301283275295869
-0.6265900000000001
-0.5868472335051177
-0.6063012312392071
-0.6968062321967353
-0.5584650903250828
-0.5907168208015393
-0.5642928711717298
-0.5946962189853912
-0.6031380519425666
-0.6409467560295121
-0.5240652739074837
-0.5840983192758636
-0.5504131976363263
-0.5401656354166667
-0.5458372817023686
-0.48080338289058894
-0.3872131295722258
-0.3847376376746387
-0.26975639999999995
-0.20353619590824548
-0.3687650843408354
-0.5063166666666671
-0.3623516068365474
-0.4300862982032602
-0.3092935803076544
-0.28071452690972226
-0.32526238942487784
-0.2494410735689194
-0.3620237894448197
-0.5149547207761976
-0.4496097160570367
-0.40198154536419506
-0.34349125056921825
-0.3104092907903064
-0.2535742666666666
-0.27585385606877844
-0.31655321140731507
-0.3545636497275255
-0.3050992826886692
-0.4027295052789606
-0.5181355555555551
-0.31860623370600105
-0.3369253343165673
-0.3332067321690823
-0.4013969687876722
-0.5515343819620973
-0.4108583351932226
-0.3302491926108648
-0.43237775467647793
-0.4373666919620209
-0.6548916666666673
-0.4717329824307234
-0.4715328475049097
-0.6336269722001324
-0.5650631526865962
-0.6055164744776604
-0.7119307628986711
-0.48055354929530897
-0.5188546493481708
-0.7227017851489038
-0.7066815329440105
-0.6357912435226969
-0.6877128785211144
-0.6587962666666667
-0.5209942321320608
-0.7919770274094661
-0.5811499999999993
-0.7365507347740707
-0.6458346745681252
-0.6614915634635262
-0.5903182200179099
-0.6251711084386562
-0.6376769038296254
-0.7108948979937666
-0.7739910506472129
-0.5989774292681912
-0.6213911879803578
-0.6756558864394736
-0.6400561186255213
-0.48864107204861035
-0.6026826658435734
-0.47968478931118
-0.32931181132465337
-0.34573400467523857
-0.2517047999999998
-0.23938502169869813
-0.3822350937235202
-0.5092162574912176
-0.37107098950775713
-0.3503175661366362
-0.41775715747055164
-0.30843024751906295
-0.3021805606253901
-0.36018972618309547
-0.2727378013603536
-0.251355861645687
-0.3854767379844959
-0.3680487803321503
-0.2862247734379714
-0.49267
-0.5389747045694091
-0.44671729038791397
-0.40443139119652766
-0.28205138573365124
-0.3115347728256093
-0.5532837444814792
-0.34480649033768596
-0.28634950209155347
-0.3231979305663435
-0.27291261157398955
-0.310804820996073
-0.3471206202310759
-0.45416613993837446
-0.4971402196977434
-0.5221506666666663
-0.4321989195027492
-0.37655300444011774
-0.298122793687231
-0.24309488154531875
-0.25359334460258914
-0.26754123517260314
-0.19899674767513978
-0.3427914820416786
-0.39418210686482996
-0.5141330531754386
-0.5514926666666663
-0.1487422706521096
-0.2939096727360122
-0.40506594519237393
-0.5722598923611101
-0.6010825576704483
-0.4400486300716085
-0.24237696552547747
-0.42712861399886815
-0.599683098780739
-0.6906998177083333
-0.5792421341420986
-0.557962185526783
-0.7041011041537512
-0.7197834571178988
-0.6600229108003233
-0.728664057656541
-0.5566641066666662
-0.4409546387732218
-0.6772171809921391
-0.8350028188450164
-0.7665328737959523
-0.6583443869614013
-0.6826133333333337
-0.5271903058483154
-0.7724019014886799
-0.32077210580698684
-0.88155243350603
-0.7222628671111994
-0.6501009551114989
-0.6561141483777639
-0.6666439306523205
-0.7036495908557471
-0.8009248760401738
-0.741411923157735
-0.3320202999542699
-0.6794172553651999
-0.6777563678363294
-0.5764023048671661
-0.28774954843082806
-0.5499161233122535
-0.4137410159064771
-0.22704615549394844
-0.30285046203297944
-0.21797454126885732
-0.2001756627907145
-0.29521460907901037
-0.263375377877141
-0.3362387848930886
-0.21527144368504705
-0.20089732327748008
-0.35323587055531874
-0.2088651984428673
-0.11444745275736824
-0.43239012405119465
-0.20927615618674547
-0.22074366316263536
-0.5533508203124998
-0.4914771728276595
-0.282279537807317
-0.4589904308741471
-0.47903021574705534
-0.24582630195453495
-0.32223784828344737
-0.439277825016364
-0.5251826042648499
-0.40364156164255677
-0.3098350671393162
-0.3916975434959509
-0.44419592907625555
-0.3843452072662552
-0.3039598188693924
-0.31305628758367027
-0.36201861447596984
-0.46746970298272267
-0.46486231728318494
-0.5731912
-0.4898611131346458
-0.4130785242017693
-0.30555444900046863
-0.2558337481573334
-0.31051824946489553
-0.21958944713983378
-0.18871484438933664
-0.37413346141561016
-0.53978882996955
-0.6360131244342484
-0.49665870978852317
-0.06335536588890102
-0.3017594547161318
-0.5394276141646307
-0.7056815484375
-0.6292033739195619
-0.47893721534079253
-0.2296504339788249
-0.46549342585933634
-0.6923138769993801
-0.6892329764811476
-0.6616709413659598
-0.6030476298822071
-0.6626059264999655
-0.7632759766371389
-0.6874959472344035
-0.665957107425008
-0.6138980800000001
-0.41311734096536173
-0.41307784876525266
-0.7947496198220471
-0.7937048380185733
-0.6340520289055306
-0.6408166409450987
-0.6163235955362678
-0.4798431338678069
-0.11177261624302536
-0.8251173864482338
-0.7300981063751238
-0.649864883471908
-0.6870767986712972
-0.6961635923514448
-0.6755516894482336
-0.7216550610460716
-0.4712773623911102
-0.13351880269208147
-0.6223787281368944
-0.5766025434731685
-0.39460889190610965
-0.1762100047223729
-0.4432248159660252
-0.32555051219659953
-0.2051488074767591
-0.2577846883700193
-0.20667960000000005
-0.1436764210735081
-0.30493728559619676
-0.20631353910680483
-0.32147482770791397
-0.5051520148807089
-0.18950693458694226
-0.16890840997937984
-0.22503294955712852
-0.4983526631823798
-0.21587416658339006
-0.08124631797933722
-0.27343088802404364
-0.5039594637321761
-0.3102528966676141
-0.13847155852710605
-0.4946272612817611
-0.34561990881215504
-0.42275958254812673
-0.5407402293862369
-0.450052300888613
-0.2732965165079137
-0.3891593639273793
-0.49137255531661933
-0.5464396682372393
-0.4064781855755329
-0.3789879421484131
-0.331736818207748
-0.5293891853563027
-0.5195337762081249
-0.4082743927554681
-0.37093931405921904
-0.5288812213547586
-0.3590432229017393
-0.3312003700973427
-0.44554482947918045
-0.4691767650340974
-0.5051889406902247
-0.5798364707973197
-0.46530945585976075
-0.2992761469243937
-0.2915475765240761
-0.43537183927830464
-0.18108316908316466
-0.20306589910312048
-0.432630122461658
-0.6579463835583925
-0.6303981418974627
-0.44466637011779314
-0.08354938462376958
-0.3213899260728805
-0.6251978878849992
-0.6789639557105995
-0.5770658003119687
-0.5224306563339531
-0.23446763484041533
-0.5199237313742504
-0.6281745044629244
-0.589277038161797
-0.6376875329065169
-0.5708116790659225
-0.4519121687637242
-0.6551341155905882
-0.6082649667722534
-0.552792130487843
-0.5884508386939445
-0.5012091334075642
-0.20651407233695065
-0.5167171846215814
-0.6545191561025429
-0.5691045497380175
-0.5906153907005582
-0.6850750840945782
-0.21873998657428204
-0.20635446683199102
-0.5447325898281418
-0.5978278999054735
-0.6202243976028101
-0.6917747873171421
-0.6652793379681289
-0.5447509646621195
-0.51769199408257
-0.2476070598602028
-0.1798069103343937
-0.49823395922351216
-0.46347316576297
-0.26808171836196565
-0.20427766140828454
-0.39005889144117994
-0.26363534046224396
-0.24876368518624595
-0.2227416539631282
-0.267643510146725
-0.23233956182312962
-0.3228487586966999
-0.23073605119791382
-0.39549066582463627
-0.417428597831302
-0.4974126313591736
-0.2522153492677061
-0.265072954248967
-0.2244877364781762
-0.33900933244734327
-0.4417528000000001
-0.3291842002454236
-0.2937059094523635
-0.15005513154477382
-0.4066494159134744
-0.4907473319834415
-0.33873260738068045
-0.2659378191637934
-0.3948295893368167
-0.5815479482514224
-0.5867260177722672
-0.3739520000000001
-0.26300796684343347
-0.435390404735845
-0.6317478522138784
-0.4893384359419423
-0.3842348385575215
-0.3824735104360408
-0.35265443081819475
-0.2824974188657767
-0.6023532945350426
-0.6682111498661611
-0.3734148570628016
-0.5153194813792615
-0.5926342677407797
-0.3233278101100534
-0.352692413194444
-0.4900877452225541
-0.44980087443090494
-0.4158965627195705
-0.5734930913215451
-0.5554174585001643
-0.33684566563339485
-0.26165568701522385
-0.46205846459350425
-0.13362823176628452
-0.23480594666666618
-0.5366516407529521
-0.6189687619109919
-0.49435607137767273
-0.46764466666666676
-0.1306746051663561
-0.4352128734531931
-0.5596754163382086
-0.501780438405459
-0.4981574454708914
-0.5352248977061375
-0.36819660048643893
-0.5162500628919351
-0.46808800694290525
-0.44718902430555635
-0.5479406176552112
-0.44926484364740643
-0.29842010327556595
-0.41822358150992406
-0.48517597179617594
-0.44499496011572687
-0.5130584772556316
-0.6119922360383898
-0.2964087946503674
-0.2547147180191119
-0.4114842986939837
-0.4624700527346323
-0.5540132000000001
-0.6710977163868125
-0.21059466864410306
-0.4224075855297148
-0.29137695061209556
-0.43164105842310474
-0.526792729048701
-0.6543159532961359
-0.5764037234572151
-0.4591573182528505
-0.3710355643410292
-0.1862272004872381
-0.3231268242845027
-0.4680773443626472
-0.4150344238695538
-0.23880207793908628
-0.29365605064464845
-0.40711645414079717
-0.3107403978165281
-0.3527884382252719
-0.3432651972003367
-0.4254417101395341
-0.4243235128149667
-0.3736155555555551
-0.2719178252209558
-0.5083375894804872
-0.4427290599541643
-0.3520331471165361
-0.356933880967142
-0.40539214920437977
-0.39152608729974075
-0.42930987849556973
-0.24300522352858578
-0.30677592328517944
-0.517701122132671
-0.5250445890235086
-0.3152387738689049
-0.23280626119831072
-0.6813116063925052
-0.5713044454221999
-0.2580407377557346
-0.5255314808597011
-0.728174978811369
-0.6501166666666662
-0.4018351999999999
-0.29909690619381196
-0.39811545323987757
-0.7317858543204089
-0.5232778172997196
-0.27579366454447835
-0.4319116039823933
-0.4222809382602766
-0.323761063368055
-0.5161636166688522
-0.742466231037921
-0.43103265263861285
-0.5899468809538072
-0.4791652323864752
-0.35383095612041005
-0.4834051906249998
-0.5004458445286487
-0.4010008361392237
-0.39098239999999995
-0.44088393586138946
-0.5399467538670527
-0.508438135399876
-0.26541204444444416
-0.3392957251727959
-0.13676986691465154
-0.42687838400000006
-0.5268243923311503
-0.42780682715710294
-0.3701294158100315
-0.4920833333333337
-0.31810331432114086
-0.4950097558572603
-0.38004352960608584
-0.3318706630208333
-0.4672701169735678
-0.48637951642090044
-0.5112050022489164
-0.4279922220880527
-0.3489973998760076
-0.4056224971064817
-0.4114778178228764
-0.3526586936263367
-0.38254171218420213
-0.22637218766421555
-0.3666456440569439
-0.41148953227250834
-0.46737094400000007
-0.6010681422465656
-0.4970433849009028
-0.20619771210349447
-0.2477631592173489
-0.38997515705426794
-0.5164249333333332
-0.6040691072535649
-0.33189529352935115
-0.53222
-0.16996134254987905
-0.3834188434254828
-0.471336693827281
-0.5862121705586552
-0.5370400617263392
-0.4944881404636999
-0.29335679384894137
-0.22403188144973293
-0.5091457517515035
-0.5322220276571157
-0.4309763528408124
-0.29630213084849094
-0.4834757682291667
-0.4982599925276363
-0.4658838577333318
-0.48206479541227537
-0.5627990920010074
-0.5006268
-0.4685458896466212
-0.4890480000000004
-0.3605680280835139
-0.5402163492400706
-0.5822062648922857
-0.314818988239055
-0.2275516625429985
-0.5513819867741265
-0.4807292733138305
-0.5974034288734204
-0.3575352928972065
-0.24014492581111788
-0.6373671804091753
-0.606275697634326
-0.5474638075802395
-0.2391880019104309
-0.7898589710684033
-0.6362866355215641
-0.4286977065520174
-0.5635098801330934
-0.8195568394832046
-0.693064
-0.4851749876007441
-0.4324966308719287
-0.4150307848278805
-0.6587698186744881
-0.6081388608225139
-0.31300995861077585
-0.4602956698517214
-0.46492028848056793
-0.5070971223958337
-0.4576984397107413
-0.6182660606183448
-0.5341769394819764
-0.4900446383638038
-0.37584319418612583
-0.5586413347799136
-0.5295933025125171
-0.4227382284977559
-0.3490992884893575
-0.36572399999999977
-0.31450919536346694
-0.38084222788848615
-0.5924175766694373
-0.4709534666666671
-0.2509433543062423
-0.327359699938004
-0.5683286382641041
-0.3462533813820947
-0.2778081145066453
-0.3464304285861904
-0.4491468691878496
-0.489345688553442
-0.37759970261684006
-0.2951284587790716
-0.33380679513888906
-0.4183414402410144
-0.3953740650015431
-0.477194185449573
-0.41185218784872885
-0.3788109535027903
-0.4080626385794457
-0.29595375466838925
-0.3991397731921376
-0.5314680632463514
-0.2003124541199469
-0.3201806869186942
-0.41713455172060065
-0.4881833600000001
-0.554909327262976
-0.5618839320478638
-0.2778835228028847
-0.1875479095571695
-0.42470397576578356
-0.4751057242956538
-0.554788612936557
-0.47691370104159275
-0.12900325360169343
-0.3583157591770927
-0.5064610833806794
-0.5315182370063518
-0.5347413259316632
-0.4998112296613187
-0.24654373097821716
-0.38212476741288454
-0.5385407452662586
-0.4813689025768683
-0.42414922550326545
-0.6262160466094058
-0.5659181401616136
-0.6449524222162069
-0.5657271684921132
-0.4791199996428616
-0.4998968576173623
-0.6319921336982689
-0.4145971660827233
-0.25647151521650513
-0.596539429146306
-0.5258286880210262
-0.5687237646115517
-0.5132017327618713
-0.31667897693738384
-0.6603937980254972
-0.6243473019144156
-0.5801118111869262
-0.38843226343883774
-0.8041112072873416
-0.6486175715767853
-0.49786863281249993
-0.5511801727323454
-0.7889453824782812
-0.6270744275676787
-0.524722550940277
-0.5146748546641843
-0.528470069909955
-0.49875645375127514
-0.5662736638580804
-0.46513485209413924
-0.40651231535441185
-0.42807637131662873
-0.6121239226002634
-0.5578843413181575
-0.41400377429220997
-0.5019257336491779
-0.336057256681256
-0.48234775016325687
-0.7043616770867143
-0.41721486520060597
-0.3212513786885572
-0.2631795618929526
-0.3171417420954747
-0.2722579553626269
-0.2545047740534266
-0.44158901373258064
-0.6736284999517816
-0.3764640153349507
-0.5452702240072053
-0.4533974130522846
-0.2558077562778764
-0.30428262074609774
-0.34149512436618856
-0.3278442043810709
-0.4506093461503828
-0.33950886674106245
-0.4026005210435677
-0.3965153578520011
-0.3183728409643906
-0.38880971420983185
-0.4432936314906006
-0.53414070940277
-0.42824129315490095
-0.39504164782695494
-0.3020874845124019
-0.4839918043967695
-0.501387435420542
-0.2500628780154621
-0.35184154115000593
-0.44207299295082175
-0.46850619812357946
-0.5892590495974943
-0.3352950729634739
-0.14159359886525694
-0.4745399137385209
-0.452770181979748
-0.5120163559145083
-0.1885479938458474
-0.2688589878359071
-0.5029801763727418
-0.47548672485207827
-0.4512457115939376
-0.4395944720925175
-0.28322232585342316
-0.513315090899833
-0.5346516016945654
-0.704820198772451
-0.5662564737893508
-0.554385406974811
-0.48168274427180213
-0.49704117909840145
-0.4672667470715854
-0.4169326632591134
-0.5947074333949962
-0.5930350836249955
-0.5052607365209222
-0.4906773559987681
-0.4067252423227939
-0.6818239014573672
-0.6986627052125081
-0.5384276951908374
-0.44431723393263073
-0.7903661189723227
-0.6768500548811396
-0.4788511171875
-0.5334176455604738
-0.7067872538185395
-0.5690208328166977
-0.4672456
-0.4922629130708938
-0.6181446867538992
-0.4338501331741982
-0.3669285876834065
-0.4923418715639461
-0.2735213318867526
-0.35384519935519876
-0.5289235451337775
-0.6772572982459851
-0.3620358980781153
-0.3259430885904518
-0.3374994259405812
-0.6730660913066212
-0.5911090565191747
-0.2975347661458334
-0.25179260276620913
-0.21616155352847302
-0.2352195939243645
-0.29737769435297784
-0.27080231196300447
-0.30535904897706145
-0.6118214227733018
-0.5991501949307417
-0.5616554321578906
-0.3550332159999999
-0.37958300294957525
-0.4020382504647196
-0.2678692217397342
-0.3181447416821665
-0.40781889051456915
-0.5073965625266941
-0.4968618473635597
-0.3839402472836266
-0.32905154787740637
-0.4465002116387468
-0.5525480095303543
-0.56832925179687
-0.41302554128537144
-0.44769550112179957
-0.356018968238635
-0.39991791072535643
-0.24594924488096348
-0.35889640469991585
-0.5235127395230369
-0.39823783144451325
-0.590492034963557
-0.13434864953050732
-0.4455807714439722
-0.48406092326238276
-0.45175655932098496
-0.24728773499684256
-0.4523445011517087
-0.42030894811397707
-0.37737962429876465
-0.4638179138251705
-0.5823952992367885
-0.5366860000000004
-0.5544694022202689
-0.5497525092194256
-0.3686976699129196
-0.352278725498709
-0.48608768518265816
-0.6124581963215537
-0.6432493240893112
-0.5634803765301922
-0.3944985032966961
-0.37917373333333376
-0.7013514432734036
-0.7408118875093274
-0.5372146983239486
-0.40717139677619346
-0.7690898518288903
-0.6554861152683529
-0.4428651879827313
-0.5389776252543123
-0.6855996033074944
-0.60261
-0.3500553333333328
-0.44623111736623505
-0.565272254294077
-0.5124180661289764
-0.22624976281049755
-0.3392397739798256
-0.2090492708168514
-0.2755430695848054
-0.40841961545138955
-0.6051856847209643
-0.49959016363496095
-0.21390823319505484
-0.49824064789655714
-0.6611508757117268
-0.4223674199214718
-0.25711619270833336
-0.2827394007873388
-0.21561715086671154
-0.26882778404629104
-0.300103776561957
-0.3759821152368918
-0.3298255158090519
-0.4664836000000003
-0.6426538821457527
-0.4786521479644559
-0.4232394133333337
-0.5037358732566873
-0.422709827289472
-0.27851783559562077
-0.4416274446167092
-0.4697083864434805
-0.5983006688356017
-0.4615681393097954
-0.40789665014266707
-0.42948096924651763
-0.3799250650960944
-0.6041651662941357
-0.4499755460195097
-0.4715222321876647
-0.5183455117306379
-0.32297710356125886
-0.33315531467686715
-0.6063630674326217
-0.4533613985286222
-0.48727423710644074
-0.44520533200936363
-0.5605004354315235
-0.4695347622927582
-0.5111654261624309
-0.4266719768393425
-0.46348588734306023
-0.4979677777777783
-0.5273453260985245
-0.5725975241914317
-0.41435326499861186
-0.20297302686098193
-0.41171600537301156
-0.6012179465454289
-0.6112788534232894
-0.5967822683116015
-0.36199602073773546
-0.28020032
-0.6378884283942959
-0.6776239239140606
-0.49775103743350974
-0.3373289840399613
-0.6788370272783627
-0.6081024785656992
-0.4257862938978869
-0.5841955857151716
-0.6364354945736431
-0.5655366666666661
-0.2983574866707998
-0.3936615107363551
-0.4616655977765289
-0.5372730397071935
-0.30444491650291267
-0.15884619151987003
-0.22736516042033952
-0.2804518688469952
-0.31977379918981463
-0.46381099417486044
-0.5699326719879818
-0.28183020140362275
-0.5620533420727757
-0.5190577594874971
-0.32470913067438123
-0.2944252441082005
-0.34459897039907444
-0.2562537843716463
-0.4317112351421181
-0.2945927497993112
-0.43870270848728005
-0.37765946485205504
-0.3625201333333327
-0.5048108415248755
-0.37006671901908
-0.4507525158751809
-0.4879409807397525
-0.3969245165101458
-0.39752664321470094
-0.44936333333333295
-0.4718900306248048
-0.4934095635446755
-0.4302271071585371
-0.48938231201361937
-0.4278426040052077
-0.49723016717943297
-0.40671405048011144
-0.6039809169808609
-0.522199583333333
-0.6691808514155814
-0.6222755522894051
-0.44584481079854216
-0.6738050666666658
-0.5521492108649521
-0.5101435627195696
-0.46430279396569646
-0.4816818492850481
-0.5081123313870696
-0.4825584050600096
-0.17740932736619272
-0.25099681463112206
-0.5435420238025231
-0.5369098448904625
-0.5296588441428582
-0.35889622162164153
-0.18772274560859661
-0.5513633957953229
-0.6015101808629079
-0.429531452507268
-0.30217759141664763
-0.5630371850285119
-0.5698655641014908
-0.4453528307291667
-0.5462925362184051
-0.47083279423995444
-0.3303332114073173
-0.30049826348419095
-0.3676163424842611
-0.3711096677503452
-0.49168349258254684
-0.4403238830172073
-0.09510113278779202
-0.21954974738127972
-0.33294494701061184
-0.27773842649009944
-0.3471338941726864
-0.53605377083695
-0.3944736185279827
-0.48649038226414404
-0.3560067193772809
-0.2526497093823472
-0.33974431642643127
-0.30530110670577854
-0.34346523671450585
-0.47942799999999997
-0.32880441619507567
-0.36473866611638067
-0.36136049459829067
-0.2472163840187366
-0.2966626337439378
-0.24047708032837967
-0.38169069792932403
-0.37124895265452884
-0.3866286433374248
-0.42703454312108624
-0.41352557584474253
-0.35326312871052123
-0.4639471523222662
-0.5114365494791667
-0.3894113840765607
-0.4962013996786432
-0.6980539956602606
-0.7631919200000002
-0.49590407010608845
-0.6098328158710479
-0.43806897809464823
-0.4482494903470861
-0.44437055377020235
-0.49028213128734066
-0.27147958333707484
-0.09287864889407894
-0.5001281381962296
-0.5135737914415782
-0.5005444471850353
-0.3569230825573231
-0.19035216767927232
-0.5094350260303662
-0.5792468555633071
-0.41974051629028547
-0.3125894420334781
-0.4768151148641555
-0.48838320413763503
-0.4053132812499997
-0.33043751272338406
-0.3193025096411432
-0.1348967296962182
-0.26414119363504834
-0.37583270052815193
-0.3338915345183404
-0.44812965979461156
-0.5294205084273608
-0.20349545358811452
-0.2238620448106553
-0.2874486204386742
-0.2923764346837974
-0.27166644274705126
-0.4759176671626369
-0.4862026268807877
-0.38449732201821113
-0.2237100105545282
-0.23477024384210607
-0.26736944471594654
-0.24289164556945378
-0.3843585048563746
-0.34270445341278727
-0.2532403858680319
-0.2521168413977177
-0.20367469365571333
-0.14939607348258327
-0.22843409085318409
-0.27644523607356847
-0.27177575882138694
-0.38286215100453275
-0.3768862955065058
-0.30971930391401536
-0.5234083245665406
-0.38354294371552644
-0.6096410330233508
-0.5450033581997473
-0.4038993294069027
-0.4474835403338649
-0.453403966036347
-0.5121700328440001
-0.39458712212506525
-0.10166382469568412
-0.47355733733172384
-0.5237268208936515
-0.5472032342798491
-0.38329516937042096
-0.25398671999999994
-0.4768850506485522
-0.5640646434929509
-0.4424406787231725
-0.2803778342632773
-0.4286356891637953
-0.4167900703481339
-0.27899683947591697
-0.1744819016539272
-0.31980783336863094
-0.21414717916925066
-0.2757027216537465
-0.34032158970790777
-0.3742762447470412
-0.44102191820363984
-0.5837301532685824
-0.4028989237932758
-0.2814498780739825
-0.23886822956702303
-0.2595702314787908
-0.30673197638942157
-0.43490445466201416
-0.5415469876316212
-0.3425585619935623
-0.23520077021557176
-0.20271190117014812
-0.17766892131540724
-0.257094980930766
-0.25398107382051055
-0.15459996606217927
-0.20337706646001227
-0.18782322565617474
-0.31052991842921746
-0.2197323986108529
-0.3041965233359825
-0.3806768348401793
-0.37504481992147237
-0.43371225584720785
-0.45846079621016406
-0.41044613125111357
-0.5132519015596008
-0.5541189806614569
-0.47096372507838186
-0.23263656168629884
-0.519862329351794
-0.4764819521688353
-0.5984911981974563
-0.43346851941590697
-0.2715701333333333
-0.4782897156786508
-0.5024355556784831
-0.4776724020032325
-0.23853651954561175
-0.4306578584934098
-0.3949417582239157
-0.22924847343443253
-0.21752277122033717
-0.4020663677746929
-0.40313694883720846
-0.35409599999999997
-0.3469110237032406
-0.36299029318673875
-0.5020704596240092
-0.5875482800338201
-0.5114298236473364
-0.27371012338024675
-0.23005936912010164
-0.32199762821061834
-0.46897047915994844
-0.5229815737900544
-0.3956661879352472
-0.2739601270003507
-0.16922783735486838
-0.21672518749999994
-0.20562178673279605
-0.20008183068389315
-0.2807113150568409
-0.3451032449310159
-0.26505127999999994
-0.4026107117172969
-0.5257366666666673
-0.4043256408448677
-0.4977937415261926
-0.6064199511480589
-0.4761384740379347
-0.30287963008886143
-0.5472959599090724
-0.41560759530908004
-0.5789529682117446
-0.49586514184075287
-0.2586976935730524
-0.4549151208927463
-0.4192036106843347
-0.4885472942080144
-0.2633403028862285
-0.4000262843562718
-0.3833586903154196
-0.2707975570734421
-0.3297301052957553
-0.4170326036175709
-0.49398
-0.3782243040486086
-0.3199644149881236
-0.5126138900806408
-0.5858800792825066
-0.4446912415772469
-0.2655649956597225
-0.28507271145072016
-0.4718174224506482
-0.4973123538752249
-0.4138797388518049