<?xml version="1.0" encoding="UTF-8"?>
<VTKFile type="UnstructuredGrid" version="0.1" byte_order="LittleEndian">
<UnstructuredGrid>
<Piece NumberOfPoints="1536" NumberOfCells="6750">
<PointData>
<DataArray type="Float64" Name="f" Format="ascii">
-0.6660472451278234
-0.56098
-0.7532086649481532
-0.5012640690681383
-0.6227646506293012
-0.4878452981665813
-0.7085910917963504
-0.5828247526041667
-0.4694052710129289
-0.5934054436192798
-0.53422556416615
-0.48968873993825685
-0.5011003385124109
-0.4652312
-0.4776350712960094
-0.44198892101692927
-0.35470389956602605
-0.42203003829837016
-0.6799920217828407
-0.5909943356065307
-0.6798565644385973
-0.6858981686570189
-0.5603233219673482
-0.6913433674151427
-0.6587157467017254
-0.649420338653239
-0.4663211151823541
-0.6124873146660552
-0.635349637197767
-0.44415879609896974
-0.5699040376846897
-0.6015970998764036
-0.5016268449319161
-0.5371773843248261
-0.5440901653647444
-0.5440088374390648
-0.6460550735659433
-0.5726032455052696
-0.6236826907778986
-0.7663818029098787
-0.6784444632571405
-0.6615182318911126
-0.6567841006848387
-0.6289138530688159
-0.6762063927929597
-0.7257022799775844
-0.6531635543781182
-0.8125445119652818
-0.5924466364029167
-0.532239705443484
-0.6578658289671284
-0.7674490816344574
-0.6198820301930535
-0.4918422947866618
-0.6325035885011278
-0.6826114778962125
-0.5414228772048942
-0.7065540044795579
-0.6252519691258522
-0.6627748128677065
-0.6050222036023473
-0.6675936081835093
-0.6595091640274333
-0.7373003047131911
-0.6335041831009763
-0.6418454859173723
-0.7081489025409812
-0.6686168171980813
-0.6360293522235207
-0.700278510797845
-0.591638773309493
-0.5793376544740642
-0.5979734556014868
-0.6648354700018868
-0.8097444909278765
-0.7315084376827166
-0.773649659995436
-0.6090204959387228
-0.5305003976383903
-0.5142599103687558
-0.69111328763218
-0.6975364087607061
-0.6027177605313875
-0.4704565911894241
-0.7343829246613877
-0.7414692324898483
-0.4967739554664536
-0.8120264744709177
-0.6031529614383134
-0.7055804456634442
-0.6421866280797148
-0.6878800000000002
-0.6615301066402132
-0.6493650558386116
-0.5727355946180558
-0.6569415000550266
-0.6585510301388532
-0.6406809253028153
-0.6132874961773956
-0.5405047282496394
-0.5576287973193131
-0.5684562336419231
-0.5806622200895574
-0.6135625367876062
-0.6008644000000014
-0.5035824189835426
-0.4609433333333337
-0.505278183435052
-0.5767953547866553
-0.6625674743667873
-0.597973666046705
-0.6187560827826835
-0.6519880228409466
-0.5551424205584753
-0.48354143266399935
-0.41417640750614854
-0.6643560545287247
-0.695010450490365
-0.5391368112535594
-0.42461957031250014
-0.7910413552144647
-0.665210014207679
-0.47845991940483573
-0.771669335961297
-0.5883117333333331
-0.7221616635668526
-0.6379264649595963
-0.67615
-0.65865883005766
-0.6318506565661505
-0.5458595130208332
-0.5964767673780588
-0.5613655086808779
-0.4360462591444514
-0.5995631359737194
-0.6003299906121564
-0.5069010930767998
-0.5649079429276226
-0.5351418070812991
-0.5063289750516146
-0.40548487999999994
-0.4533357814426741
-0.4820410945956719
-0.5208620325182255
-0.4946764773010928
-0.5079722171023898
-0.3777720731556106
-0.4525041628985546
-0.44951
-0.49039206680462816
-0.5298399561604046
-0.5230785596581827
-0.4838382398281818
-0.5278775294525041
-0.6044297750481692
-0.5209994124765628
-0.5283444383139492
-0.39807254498108996
-0.6622138508799968
-0.601325983163507
-0.5981231365052757
-0.43376170052083324
-0.706629813595132
-0.6562852594319408
-0.5020597148171111
-0.7160286651729063
-0.5819848
-0.6802649721016739
-0.6275327604108537
-0.6271938882000407
-0.6152629374810552
-0.6189970637927709
-0.5504739437101219
-0.5480481814424468
-0.5476826914556826
-0.4365031409927247
-0.5215093358108706
-0.5397103548182024
-0.4743408725092693
-0.32777502624509186
-0.44856366525112173
-0.5196553369298774
-0.4798600508167068
-0.4541768161465865
-0.4841626885000985
-0.4694172378299896
-0.4010488751511208
-0.4440883230768595
-0.23924752443433656
-0.47796157290181274
-0.503377986243446
-0.5205572831466198
-0.4536953346890798
-0.41235199280843143
-0.41038458069106026
-0.4875448988736468
-0.5083233353998762
-0.6097943197222246
-0.5204005370607442
-0.4947858969446555
-0.44045333873521303
-0.535599685506111
-0.5210955434199831
-0.6241424468251746
-0.6187992646511359
-0.4675554812980967
-0.5784892316343538
-0.5848059224770963
-0.6999086132230855
-0.4672418487861218
-0.5977894090296524
-0.6812213836311402
-0.484050328597261
-0.6485974622487979
-0.5148883222566643
-0.5656578996027954
-0.519263045931388
-0.4590199349039068
-0.4552831908441342
-0.5577141872287664
-0.5271559418143111
-0.4712757367520632
-0.5160075218455015
-0.43447318391160034
-0.5021528232083958
-0.5399285327547012
-0.4845623273191298
-0.3512375459805743
-0.43467777460531226
-0.4630360993772556
-0.4774022986749058
-0.4573213516473427
-0.2789486418151131
-0.4144134471820904
-0.37931044664095365
-0.4728824886288172
-0.4509799855342011
-0.5257013630915478
-0.5198135150677529
-0.4785465159653873
-0.38687022068510574
-0.4501131602479849
-0.39904227814838517
-0.5645750575049767
-0.6013528137577387
-0.6325907584144338
-0.46621713110541135
-0.4611953449059722
-0.49692128218441556
-0.5704103259221819
-0.5101617720603433
-0.7512982232420389
-0.5983763873410095
-0.4600962389454077
-0.5232088155917501
-0.5000455013516464
-0.48215211117999585
-0.7529753216889482
-0.6564492304213672
-0.5368466742348073
-0.47061915993951325
-0.6173837416077709
-0.6641299710411306
-0.5535868305935495
-0.5250122675565488
-0.5779354410762996
-0.5469045412047848
-0.49690755035591133
-0.5398483916098363
-0.527144007799437
-0.27595289548813445
-0.317666
-0.28340061702523406
-0.29097796415319116
-0.31508021875000003
-0.4969733305156983
-0.5779105182889026
-0.45588397332731984
-0.35615006865087273
-0.37540289150650974
-0.422406030192193
-0.41363464
-0.4323185012569397
-0.4490983433551108
-0.5449629055589992
-0.4664691478101198
-0.41936231494110343
-0.46529537448530595
-0.3560241084345615
-0.48496521822397254
-0.46543446993180404
-0.43088442027547585
-0.5540115832379002
-0.40819601003317346
-0.4285462409418345
-0.5227661951293504
-0.5423571680099196
-0.6080284306820561
-0.6492231287372422
-0.5831036523199805
-0.4584798992164351
-0.5410055930316182
-0.6061272856793442
-0.5752939321646087
-0.6736585335658662
-0.774376195322994
-0.5259938688945861
-0.5279453053385678
-0.6423730621815389
-0.6087259610977722
-0.492798
-0.7758544171385252
-0.7037980278844898
-0.4211766783770756
-0.5734465094227977
-0.42854360061771685
-0.5134149856416615
-0.7097561792208019
-0.673246160686947
-0.5662682456444913
-0.43588890429280985
-0.5175338013087759
-0.6365038874267858
-0.6267194687500001
-0.38688406072868403
-0.5229642644865039
-0.6307701996280225
-0.4065179020568496
-0.58346608
-0.5174724215747055
-0.0920819176886355
-0.29834000000000005
-0.20853831524996377
-0.34820344974184453
-0.07083637021159112
-0.19071873697916628
-0.1410319453025163
-0.28130529344905936
-0.31600014114771313
-0.5266871843868534
-0.5668404244678646
-0.41430842234312887
-0.33670849304509604
-0.2876286540917885
-0.392208133333333
-0.43338253956310635
-0.4293656685265547
-0.44145391137408474
-0.3520026494033328
-0.4432818850560238
-0.5057066666666666
-0.4502369641452866
-0.5940069640319888
-0.43693897372671414
-0.3676691357401023
-0.5359560064342349
-0.5450962707170904
-0.6400466776709807
-0.6250643192402555
-0.47202218348682523
-0.5356622034143518
-0.6456674250816014
-0.627368977058494
-0.6192325007547215
-0.7346957198807701
-0.7047437862349958
-0.5267280557277675
-0.6417138030832814
-0.7625199753732373
-0.5364571210035757
-0.6472151141501254
-0.8009006522875644
-0.5997733829302289
-0.5189781333333326
-0.7256165314806965
-0.5839850650738696
-0.5915166666666672
-0.6881289025247811
-0.678611166408055
-0.4388416249969003
-0.5389676565406071
-0.4154962774109974
-0.4758652493951357
-0.5944712771976642
-0.6585011495126527
-0.6290054264575201
-0.38525326440705226
-0.4170523214674287
-0.6383229157946705
-0.65590953125
-0.28268335987993215
-0.5293193211102151
-0.6082527123372595
-0.40867851477776546
-0.4956811999999993
-0.42370507542880714
-0.08193884008790252
-0.28670885720190137
-0.19148439287855232
-0.16520993002023693
-0.26567760694358333
-0.22170037552106733
-0.25435717877020186
-0.27090758524488534
-0.2819978195555775
-0.2749839337009872
-0.3190821416020669
-0.355442346779734
-0.26329581588663176
-0.46626
-0.5163642333684667
-0.3873913117159567
-0.19992071068402442
-0.017775974697892754
-0.16412072423979202
-0.47731826622706836
-0.14739238298242693
-0.050764795243119304
-0.23391056921527878
-0.1993744518159545
-0.3043419830543506
-0.17560209586120934
-0.3964321569112735
-0.4770662010823737
-0.4805513333333335
-0.3302492474228513
-0.3507957252404086
-0.33152528953550403
-0.36389832016864015
-0.29533367611933864
-0.3865234759535206
-0.5327902815705717
-0.44125634383494616
-0.2695485764995397
-0.44676096484592925
-0.5532746666666667
-0.5718639476747034
-0.6393111983384382
-0.4077984406247525
-0.42224933940972176
-0.6310035235497137
-0.6236896370311465
-0.7546027057715853
-0.6553018386093202
-0.513104521595371
-0.623367743923612
-0.7261488185982722
-0.6422667216808385
-0.6294118154577387
-0.67331946646485
-0.7360774324689531
-0.5423097044843975
-0.6449380799999997
-0.8202498744506806
-0.6001410972644178
-0.6023991122729869
-0.6411042796001265
-0.6078793897778726
-0.4649377066666662
-0.7011965968175248
-0.6313260670102633
-0.7060869167183297
-0.5912022486349519
-0.5063769294224514
-0.46484571558162474
-0.46326181979747827
-0.43450530466284193
-0.36669551426602515
-0.5169182768035908
-0.6730894037992905
-0.6849895929390118
-0.3118171314218343
-0.3958263176276098
-0.6211696906498535
-0.6547103585317
-0.30023559194737665
-0.49366581743305654
-0.5505042916723202
-0.4116651334032584
-0.42168471155197373
-0.3710250706000417
-0.13129860680581293
-0.08932066830354833
-0.2287795215994071
-0.18963073089266827
-0.2141658100549907
-0.3085087429420037
-0.29021056527405
-0.29583753275135577
-0.37367237475505993
-0.28570933385825353
-0.29497229361694655
-0.4974278515625
-0.38231859888716
-0.24727035253936394
-0.4165834035957837
-0.42169521078735267
-0.0627772211367237
-0.10412122473843215
-0.27487982046542175
-0.4769014461353019
-0.3419279930985368
-0.09769721752819176
-0.20832433858933486
-0.27430302244265353
-0.3048808973727084
-0.20383911068776664
-0.25612422440366456
-0.30063449964642763
-0.3436252091156114
-0.41386762588689097
-0.5382964
-0.30279531724613906
-0.26640903147584
-0.40025668464744574
-0.4481528923055719
-0.2852787534221904
-0.48444908346846466
-0.593261248927464
-0.35509198857472674
-0.2643734482457518
-0.5520219402318803
-0.6118973913342975
-0.6671509735322391
-0.5891329445484375
-0.4078323695283003
-0.5052770895833335
-0.6796592883180783
-0.6215361837275157
-0.7808997259037868
-0.6541899247227382
-0.5093872643521388
-0.6376421473593816
-0.6433411469023761
-0.6925569262244266
-0.7113625838671903
-0.6170530650359773
-0.5714148130884135
-0.5330052226763796
-0.5622159359999995
-0.8126328544525331
-0.7271983816970383
-0.6775091108348122
-0.4843519657236452
-0.459003395374087
-0.4504730348419095
-0.5787115613143212
-0.7149007546323639
-0.6895961562306261
-0.6162975888496759
-0.3508139594706527
-0.4015179656729291
-0.4213693653284019
-0.4190577994635944
-0.27920314772473637
-0.5054556280035931
-0.6946153557332511
-0.6655206280699045
-0.2846000780226837
-0.39522789879451753
-0.5971106310346349
-0.6225190200268972
-0.3624271266504962
-0.4908167034310478
-0.5303111958421366
-0.4600830922642753
-0.4482639247365157
-0.4125708986635631
-0.2963427980987801
-0.11862547366198402
-0.23538158057957584
-0.35761736771148195
-0.2244738747675141
-0.2530668270334316
-0.3373431253898191
-0.4388060747793681
-0.2783524400302256
-0.31060410722460136
-0.3286559523076684
-0.5037518040917545
-0.34099017389066205
-0.26497077603309344
-0.3791182058525746
-0.35463151928062236
-0.3820191642862976
-0.5376692498450093
-0.5123757780533168
-0.2189367360451123
-0.15724719726805067
-0.29704118724794415
-0.340554928208308
-0.4495372735413649
-0.3843023493813716
-0.2183295042315688
-0.2697851181384899
-0.3161525067722141
-0.2377786916075182
-0.24251636683811692
-0.3867731722443714
-0.34642663240312
-0.28397766090402593
-0.3088672688856536
-0.5113653628848934
-0.6067455773920231
-0.45169031572875745
-0.23508587139933582
-0.3365719707917955
-0.5527240019838809
-0.4154846829492707
-0.6447217493085153
-0.5465048850588962
-0.32308707206455806
-0.39621045542268285
-0.6208543206573635
-0.543313123234829
-0.7246317056746135
-0.5684498329544674
-0.48114945913639273
-0.5486202874466682
-0.5469797363273373
-0.6648544521595365
-0.7994421985673767
-0.660678346220294
-0.5124611838719476
-0.49769741738448664
-0.5602482784139712
-0.7869789532961359
-0.7751060477542179
-0.7029254835994299
-0.38517815917760173
-0.45193969209912827
-0.5219812543500724
-0.7455597963852038
-0.741717281903545
-0.7448184991664344
-0.5219233153533357
-0.2692225486028929
-0.4379368433285115
-0.475324367656006
-0.6970727812986852
-0.6371582527381688
-0.6430879995262324
-0.33827249020057776
-0.27931117872287703
-0.42458657490004365
-0.36862924694108806
-0.25017021616036345
-0.49771215423431064
-0.6213764381843684
-0.666486199531992
-0.28038237202072885
-0.4206937820287832
-0.5303546401228908
-0.6204265217301808
-0.4404906705107458
-0.5030694696166939
-0.5132209760512944
-0.5135748410121738
-0.41191209134118595
-0.3548895611613991
-0.3863358159399319
-0.16804911099765618
-0.2964705589178836
-0.3842454277584546
-0.43987142610852664
-0.20898504925260109
-0.2652720814978374
-0.37652622710556755
-0.38886828843706017
-0.46779599999999993
-0.2208595472849431
-0.3705178205827658
-0.32087335551101864
-0.42866841717386256
-0.3843860757998807
-0.38428281228041256
-0.35880659840079693
-0.46683648367545955
-0.5022789059524435
-0.5641066005373008
-0.4937126666666671
-0.27348513071321173
-0.21410677039688694
-0.34872080591970617
-0.3619474617162901
-0.3184107779786647
-0.49417497003513144
-0.3558908660590656
-0.21117850665114538
-0.3284786482816433
-0.3557949105713074
-0.2586857578615378
-0.331891183094419
-0.47921815038752547
-0.303975731080575
-0.2575584496527776
-0.430460077571393
-0.5687923557313841
-0.472309071089069
-0.5649281146229453
-0.3910812502784988
-0.2987995918578213
-0.5591014996486874
-0.5833672862910965
-0.771547226166761
-0.5200031999999998
-0.46982009300832134
-0.5285667606556602
-0.4781990221061522
-0.4946373333333343
-0.7671958681545769
-0.6690751771275063
-0.5974207653900782
-0.4724393174381767
-0.38784274445615635
-0.7367240676448296
-0.8195849829085519
-0.7202608838278763
-0.5037056307746771
-0.3083593038194446
-0.608729397990455
-0.7524154531340029
-0.6963933269386463
-0.7265096836955286
-0.3903857601486614
-0.31439284170283077
-0.5293046633271336
-0.6946378902549001
-0.6875805115709578
-0.6528156145354148
-0.5636310073421135
-0.22046970650716646
-0.37339658666666614
-0.4516979908286762
-0.6817244599149057
-0.6571241354005167
-0.5316355254329869
-0.36057531126673603
-0.1894816457670316
-0.4169209047323826
-0.27078944245285047
-0.2590662644754908
-0.43421805417025233
-0.5651948025707209
-0.7333151484904888
-0.27562446996032797
-0.4575155571033533
-0.44896945377362485
-0.6666466973420002
-0.5119177949460691
-0.42283714827580704
-0.5235676265571559
-0.43695446424048817
-0.3813682999896642
-0.2881117282371431
-0.38096999999999953
-0.14761394891590293
-0.33471532089738054
-0.3896214606615776
-0.37907072679350945
-0.34253390576565407
-0.19525374457532643
-0.23346693558866874
-0.4338511960586365
-0.34195312790936677
-0.43067649239671807
-0.17421084108286844
-0.4334985619577268
-0.40674677624367916
-0.4139566313432641
-0.3536066270579333
-0.5076855802720607
-0.44148319193660873
-0.5096221128025306
-0.4868024782084408
-0.47678666666666697
-0.43035439999999997
-0.27293283037454885
-0.16381859911853916
-0.3703813445806256
-0.3237528085713564
-0.2867592935440634
-0.4897733132780686
-0.411875985963172
-0.20660096209490666
-0.27160083068363766
-0.349451531850022
-0.2683712945084736
-0.3583060809550855
-0.48538947707727625
-0.2740055524557408
-0.4104797776041666
-0.5495680344662907
-0.39921536221829684
-0.2966316
-0.46076947802185114
-0.5965167547020992
-0.4678176147551146
-0.5223718666666669
-0.6781825693326969
-0.7808940366466902
-0.631546384
-0.7049149947190547
-0.5305524086977974
-0.25287490562341125
-0.5040055555555571
-0.798513094854309
-0.8567645411692123
-0.6522099149106778
-0.3106284817708334
-0.37140166835444943
-0.6438436410649835
-0.8702708649642635
-0.7455852582221233
-0.42933574271543745
-0.26980590422453754
-0.6041604086231142
-0.5757638563031537
-0.5950512292538058
-0.5934624447057485
-0.44881712644055244
-0.2539010546256107
-0.4881444320000002
-0.6551100992883699
-0.719118881897517
-0.5926627875057041
-0.49371869876584834
-0.2591252737590883
-0.28579159999999876
-0.42468667402355864
-0.7809689063304882
-0.61536
-0.4737161930828792
-0.3772718748615482
-0.14424147250735944
-0.3180493979472333
-0.1389760403845524
-0.3464737541247515
-0.412044477946244
-0.6466845099405026
-0.6932576638353276
-0.3519552277355759
-0.4828528777882964
-0.47391916081185553
-0.6362471093749998
-0.5476416412404508
-0.38992307315682523
-0.5450467699938004
-0.3775286402677907
-0.4450592000000001
-0.3297339367637942
-0.3186793333333328
-0.15322369786754064
-0.3052655918528204
-0.37874341191983496
-0.2985066244049317
-0.3630355152222479
-0.21412522959289162
-0.2107465597124808
-0.47981370418575336
-0.34479736263291466
-0.4374107468071911
-0.19996405951642907
-0.41336873620394315
-0.4835862866653078
-0.45693878989449116
-0.3385670535234561
-0.4904292972740614
-0.4583775048138603
-0.4289399904933146
-0.4632872109560721
-0.45881399999999994
-0.36860732651374223
-0.33992093706987353
-0.1582575877661746
-0.32148060352280433
-0.23707077642352767
-0.27342250223349435
-0.34530427638208344
-0.5216248819092902
-0.3793767395833331
-0.22892170572150464
-0.30690737179836697
-0.1964518193195142
-0.34083780334599273
-0.41897232306950566
-0.4427220723289935
-0.6485045241815098
-0.5026341248481199
-0.18326699628022294
-0.2396526666666666
-0.2414960104977526
-0.6562891741559226
-0.7423052787281156
-0.5766593599999994
-0.6137797043387728
-0.7221077086174824
-0.8442495871709036
-0.8156881033207396
-0.3870209777986593
-0.1814950615247897
-0.4434861328098109
-0.8766074273027318
-0.9317990813054845
-0.5562118113632818
-0.24508581250000014
-0.4041689444974957
-0.4588361437051735
-0.859456562995815
-0.6197622938541031
-0.3741189249845008
-0.34934451891352913
-0.512768384508906
-0.49548746310715247
-0.6088160819500049
-0.5480079731061221
-0.47302364827534465
-0.2812120482339762
-0.4158013066666662
-0.5192281041893684
-0.703590525347717
-0.6769622873353609
-0.4971683642717372
-0.3554241006320877
-0.19188084339739586
-0.3432816590204583
-0.796805450308648
-0.5849685827337118
-0.47018093777804687
-0.2356959197189293
-0.1289069948789125
-0.16929939375059286
-0.5238193617476169
-0.507571955611631
-0.7145707316902655
-0.5428266230011133
-0.5433330407174549
-0.5651139512933998
-0.5853037216214895
-0.46647670618141296
-0.4173753239018327
-0.2652200316869871
-0.252510560074706
-0.266653397530697
-0.3606514786114579
-0.25954301106227623
-0.43291869917416387
-0.24008855659745357
-0.24769086405117866
-0.4269387049334055
-0.34769435388519915
-0.49742145939243626
-0.2712758519674502
-0.37305577903321147
-0.43113004025893703
-0.4350371953806554
-0.3547299952152219
-0.43995482955882664
-0.39800114149305577
-0.3981226482732964
-0.4419820933036003
-0.48766708204174425
-0.3050259059723088
-0.446599677130393
-0.305351372770933
-0.24679426540813854
-0.17770081049384243
-0.27774059612090785
-0.1649807561479644
-0.5411293705600583
-0.6094475475829527
-0.3483606092128095
-0.23202695742922122
-0.14576173913659443
-0.2866434227366074
-0.4124932069105202
-0.6984204980445788
-0.7376888131587108
-0.3198185450520326
-0.12626329854653154
-0.26604436329820175
-0.15270799165802593
-0.5135650215313293
-0.8636115542077331
-0.7470257278776608
-0.4792826089920634
-0.7653045732911804
-0.9363186500020669
-0.691195262785691
-0.283200308931088
-0.2852331202372789
-0.3737262605910314
-0.8882171562019286
-0.7588709400785283
-0.4460323480923514
-0.3466668828781547
-0.4395909524514399
-0.4461406190830592
-0.6672137385084271
-0.4816419230695049
-0.39980116963048323
-0.4621056551370804
-0.5221186187038156
-0.5510687451388987
-0.6072186650134331
-0.6274542498041723
-0.5247149860344001
-0.3828770474271541
-0.3463517261748299
-0.3832365207462906
-0.700077051135727
-0.607238647990263
-0.4820657767453251
-0.2210254113659843
-0.22708253049470128
-0.6791557720151377
-0.6189772774644542
-0.4444750227114624
-0.09660361500976178
-0.40649238004502514
-0.7089452596942856
-0.619809400797111
-0.7319410628886663
-0.6166181418474882
-0.6044912297267733
-0.25266505338568557
-0.3463369351921066
-0.2734835962976598
-0.273250487305945
-0.24716099177151982
-0.5372796924650113
-0.26428731997878663
-0.2897911348351146
-0.31665616223032705
-0.27297034450494606
-0.49725963190741856
-0.3309056148207877
-0.34005275572929433
-0.3248193080076441
-0.3897556488943997
-0.37009118840627714
-0.4016135388195827
-0.36540594791666664
-0.4356663224926907
-0.4119011482445867
-0.47790274023558604
-0.19947
-0.4862402271278465
-0.44984193095923425
-0.2363651997127724
-0.1244441257201901
-0.3124565726628653
-0.11053269270510448
-0.40641899723479463
-0.6798058577183569
-0.5223379101909097
-0.19430944800991942
-0.164487473917639
-0.20188087233147897
-0.5380457322760805
-0.7852577441244999
-0.6023851968749999
-0.2086318663359578
-0.22717515911054612
-0.3531689460632363
-0.2938084688769714
-0.36730560286718367
-0.7425711583384996
-0.8283449163325755
-0.505945017236977
-0.8025039534853226
-0.785602048
-0.5273587776591183
-0.38243667522500385
-0.4532349677877647
-0.43407775849004676
-0.7104811290762553
-0.5590246803196242
-0.4741733226704768
-0.5252043902141134
-0.5185969379419592
-0.5745129573201794
-0.4706691329986539
-0.46841866839260343
-0.5057381623666438
-0.5344543159447762
-0.6134020277792375
-0.57731164600124
-0.6379675751691927
-0.5926476931867272
-0.45507306912997353
-0.37447401353998794
-0.36592763572561765
-0.662311200927684
-0.5961987434948065
-0.3373167779568789
-0.22725197970304067
-0.7173730080130095
-0.6588137527901291
-0.2637034404275634
-0.6722757850489282
-0.8124670776193431
-0.7900222643305381
-0.2280840000000001
-0.38133072274538554
-0.27035519853811846
-0.16758520801821095
-0.21768175193798378
-0.607629369593022
-0.2871460351312249
-0.3246715775562636
-0.2152175341635939
-0.17731535489373626
-0.4780489333333335
-0.39579843583385
-0.33577709299740016
-0.25088273727846006
-0.3694575908245506
-0.460489921884687
-0.399917421602759
-0.3748802743039414
-0.49244678389398716
-0.4877077604134365
-0.4956439999999999
-0.13410733333333333
-0.4201942911939156
-0.48123830477422663
-0.27007888083507753
-0.0930348933928495
-0.37135036152129425
-0.24538823457189538
-0.28592705400210766
-0.5737567083333329
-0.5785876667624984
-0.26078434284619484
-0.18306132019701504
-0.22083905059782885
-0.643224539075009
-0.6731709594957634
-0.4637816302083328
-0.32849365217108145
-0.41206836727210133
-0.48042138871667756
-0.5298301334109313
-0.42057224649014757
-0.6065973684645587
-0.7087576799999996
-0.6262952010493991
-0.6653892114073156
-0.6143163999999998
-0.518266723691445
-0.5999397071590858
-0.5864628851971806
-0.5676037154177429
-0.5162776759661083
-0.5360531377546321
-0.6195882089253836
-0.6181422874558176
-0.5933301087505032
-0.6598870055796655
-0.4534780764219481
-0.5705324661144787
-0.5421166902521578
-0.5328661247546121
-0.6558556623935524
-0.634092441636314
-0.45670895547001095
-0.4079617817648274
-0.4554854935763029
-0.6894329941705041
-0.44398519455641733
-0.30282787488858576
-0.8076412555486664
-0.4595047985768091
-0.7972718400826508
-0.21781777777777836
-0.3919775058472243
-0.27925541841237117
-0.11663587746945346
-0.1922485768119889
-0.648644825377144
-0.34564283185231054
-0.40968464284423045
-0.2086223817715113
-0.14224890142409452
-0.4588011200000001
-0.5164347334159958
-0.4494710566775561
-0.2870101057538015
-0.35687597884490657
-0.6599654305297253
-0.5059711842699369
-0.46592674101107695
-0.5562443500527
-0.6978095255813964
-0.6330700000000008
-0.27259987766067223
-0.37189583586500524
-0.45152927790801384
-0.31901200776855654
-0.12256167167438338
-0.4026333467347812
-0.4774187977080849
-0.3695899299896485
-0.5035326056134259
-0.5265529567722335
-0.3897945734021217
-0.1962582286658244
-0.37833519373439256
-0.6024026538541029
-0.6015274312874562
-0.4861538053747325
-0.5618477052658589
-0.5876129867840786
-0.5873258776227387
-0.6843925297001126
-0.5980902169468059
-0.5863351134187288
-0.6039999999999993
-0.6024196731657067
-0.5182104174416198
-0.5848004598966731
-0.6266493117654796
-0.7145630116125239
-0.6318443849118807
-0.6706200000000002
-0.48140996263465335
-0.6402246734865007
-0.6702390326343012
-0.5656772014020782
-0.6453279056358113
-0.5713663586912789
-0.5853370611585986
-0.43366974198346503
-0.5506957595486115
-0.5106761985947518
-0.3391573058894062
-0.4850817085917593
-0.5750590666666681
-0.3094552617568817
-0.5965558379830556
-0.3633470978852373
-0.44173387133275743
-0.35458293818131303
-0.17515596493966756
-0.20494971566418338
-0.626847062616243
-0.48422610274650135
-0.5516776394691126
-0.33703766671967555
-0.24037912620874757
-0.42168121669766473
-0.6333837906183569
-0.6625594785214516
-0.42522283210244355
-0.4538987721504731
-0.7864733754561698
-0.692345045843277
-0.5749302890625001
-0.6524861586789844
-0.8119584685071181
-0.7347945401942547
-0.520741507749535
-0.45384198972038997
-0.46129605506421373
-0.3771204610128722
-0.2420552527079789
-0.3899405512869037
-0.6610520969812598
-0.5491713613034358
-0.5357447274020329
-0.5016854817248065
-0.4642556809175447
-0.2870163902232844
-0.4820320555990944
-0.5406196354894265
-0.6128343917300967
-0.5642583203383319
-0.7034868095714976
-0.6818074868919787
-0.6641719999999999
-0.7026706332751069
-0.695323350606131
-0.5983802914386325
-0.6105813630915478
-0.5055173906467313
-0.5113721933901296
-0.6303104730316176
-0.6730249017773725
-0.650410564234011
-0.6506205949531898
-0.5842229074721852
-0.6670073418267211
-0.5230969854850246
-0.53011753125
-0.6345871754238416
-0.3929598230746303
-0.40188879293242413
-0.36140856000000005
-0.32176735075784785
-0.3496099541227526
-0.571928187642075
-0.5275786532285777
-0.4457859738447815
-0.30289281577495886
-0.3179248659229917
-0.5455946246368013
-0.5988335736973572
-0.634028734191094
-0.48211585645412564
-0.3875676546338767
-0.49065576119032794
-0.6164648465937982
-0.7562707993224418
-0.5409995657358061
-0.5730527693738378
-0.6494613120435238
-0.758180092091724
-0.6245166232638891
-0.6958452626705914
-0.6411669152441962
-0.6581481525108492
-0.6780645368877875
-0.5455285546010645
-0.4910311635006189
-0.39311350027231456
-0.3677546803637111
-0.4236490586506773
-0.7216829936211652
-0.6428407539295926
-0.5164081964168084
-0.5101741366720046
-0.43647094784046253
-0.39983035882624446
-0.449472268986985
-0.543380768219094
-0.5507713839353147
-0.5890689720736898
-0.6997006609368378
-0.6725017224633189
-0.6506404098581681
-0.653978859379976
-0.5869348119785675
-0.5987376097127499
-0.4904591557787307
-0.5730302043820954
-0.6461176055548669
-0.5730944127605593
-0.5656133474331818
-0.6825390820340572
-0.49298842151127237
-0.4232018688124634
-0.4683851098559908
-0.29241623765240765
-0.21369416023162172
-0.6700967465729838
-0.5220616657299223
-0.45991652226569196
-0.34277171346047
-0.4323214337322993
-0.537063726701589
-0.5914766565408643
-0.5239045277523733
-0.500040300843242
-0.402536439782174
-0.5627947999999999
-0.46713712729076406
-0.5697113580559049
-0.540612919052356
-0.5532709206447609
-0.37651137047171707
-0.5832083214369708
-0.610877870121022
-0.6278820492005768
-0.38599312196243446
-0.5509363267203964
-0.6919383096640831
-0.5463996048820542
-0.41267639092139247
-0.3696395719395095
-0.3521113970792857
-0.47475025061747905
-0.584696558173177
-0.6211878143057521
-0.43160240368646346
-0.43580989003802045
-0.40922356232973267
-0.39920490054395014
-0.4199944189025419
-0.5161899064745566
-0.4438306773506783
-0.5591101919856273
-0.5579035524931379
-0.5373093117228943
-0.5407045291052195
-0.544421492181579
-0.5106968972271869
-0.6144391876697907
-0.5601772481488377
-0.4604786207211324
-0.6104674684622843
-0.3468833561066332
-0.28478120841563226
-0.6443699793281654
-0.4110345952727504
-0.3483023665669051
-0.3063719558856872
-0.3737005478587417
-0.5401066224426535
-0.5147951580078542
-0.31417592166520764
-0.3782192712589652
-0.3415321709892021
-0.4667049333333326
-0.3429276308632545
-0.30984808146908205
-0.44581240990734544
-0.47904654872447705
-0.24205165625844713
-0.3928325555312206
-0.5677486068677026
-0.5850181146013417
-0.3010236208520584
-0.5426211927648578
-0.48139399999999993
-0.49549840443314236
-0.2686165434998629
-0.3382729029282834
-0.31172513086501225
-0.4146321978641448
-0.4268967996775994
-0.37410103565891384
-0.317033613830148
-0.4424394034081041
-0.38315043667757914
-0.46664046525989994
-0.44720229673720685
-0.38819589521112063
-0.4210024557291669
-0.43880947427154376
-0.48530911189664044
-0.5102799878562446
-0.5763975670944461
-0.4439544800000001
-0.4590837706137631
-0.44429666666666645
-0.32883170176820803
-0.22175206102848077
-0.3219124362115187
-0.2914280143623327
-0.43040849969001804
-0.3758968857201906
-0.22011498261582008
-0.2877492897335436
-0.3628680077498007
-0.3661569548253773
-0.28799373217606933
-0.22819405040983118
-0.4062706425760439
-0.47638375428314367
-0.25745617482951016
-0.3598790906756086
-0.5720743016283175
-0.6210936670382506
-0.32175968268733807
-0.51108
-0.33085151672969987
-0.20963241245387765
-0.32409263114071574
-0.4152861543547998
-0.35391625081601186
-0.2743213932291661
-0.25811040754378306
-0.4700976586921691
-0.4868306963532056
-0.5081640394504188
-0.37011474742407086
-0.3311175625129153
-0.4243803999999996
-0.4439735792980039
-0.47959451746228526
-0.25339540691370743