<?xml version="1.0" encoding="UTF-8"?>
<VTKFile type="UnstructuredGrid" version="0.1" byte_order="LittleEndian">
<UnstructuredGrid>
<Piece NumberOfPoints="1536" NumberOfCells="6750">
<PointData>
<DataArray type="Float64" Name="f" Format="ascii">
-0.3530820143840288
-0.31339
-0.44859410220027046
-0.2182266063198792
-0.40398018228036453
-0.34643129256116373
-0.5323575812279665
-0.4815515364583334
-0.4685538455105987
-0.5852303039880561
-0.5431111841289523
-0.5642623450379673
-0.6247649628453924
-0.6293628
-0.6331787374956078
-0.7099900210304567
-0.7844800867947923
-0.733292431789773
-0.34738225328325084
-0.3320195763587521
-0.43990489835304564
-0.44716115270674933
-0.1929667648274438
-0.5487958057256153
-0.5828149999514616
-0.6159983698194066
-0.28257212484444455
-0.6918029395713745
-0.5961691163463528
-0.37892347746930394
-0.7159606821815866
-0.5457488720046512
-0.46159614192145243
-0.7364149254573632
-0.5103271044843983
-0.5876365583852121
-0.4016552028111527
-0.3007826193428394
-0.3496514245529792
-0.3243156696261113
-0.45571304711957356
-0.4352240838354386
-0.3844772725988949
-0.19576202727836334
-0.594028306900492
-0.5213089653443486
-0.7224815720623217
-0.507765774953503
-0.503656082976816
-0.20052358105182422
-0.7147903995661742
-0.3951085594359069
-0.6179754864431303
-0.27978971937399905
-0.6443751589900054
-0.6521570698724832
-0.3800187799080165
-0.6865244819792061
-0.4323170173589584
-0.48840410597750983
-0.4079927917784589
-0.3863573837569752
-0.36672782128309916
-0.47768368665757305
-0.3757302933026149
-0.3928156023083931
-0.30977844635915025
-0.4839801076063286
-0.465820611289745
-0.46752256172883416
-0.27680061183298194
-0.30374927877660746
-0.5977522094110927
-0.6011220488541335
-0.48602196660467073
-0.617371074178251
-0.37878261568058796
-0.7200126473655643
-0.3198170741027455
-0.28360211001066865
-0.522815596762383
-0.7271051773874201
-0.4163544453512233
-0.4062101649547741
-0.6956431393710535
-0.48890090136206693
-0.5294674790632846
-0.5632438565932095
-0.5247032764620796
-0.477189736461359
-0.5045016099761453
-0.4769266666666665
-0.44924356314712627
-0.41885114310142485
-0.463923020833333
-0.5516999591726497
-0.5139082995579153
-0.4922709028899242
-0.4286159460451801
-0.5126067575945443
-0.37913429377261293
-0.4564883405527666
-0.5762002071925424
-0.5260940825758097
-0.5294764
-0.2997453301487145
-0.4744599999999992
-0.47503332482382216
-0.7025796454776178
-0.5676531139603221
-0.44109130398842705
-0.4814651366732899
-0.7140020501957963
-0.5400012897864408
-0.3228658711556341
-0.5112428356790035
-0.6442454333978673
-0.5687766813978102
-0.40870879242510166
-0.6607662890624989
-0.5849751482103908
-0.45448353518200674
-0.7273799307708199
-0.4735009489428685
-0.6161952
-0.47460094234345945
-0.5772263521882602
-0.469724
-0.4239763791927584
-0.5041474984486546
-0.4273693333333333
-0.6071114923124313
-0.466407763777339
-0.4582877718536888
-0.5219890814910694
-0.6335406518305431
-0.5243188763474212
-0.5629946091191714
-0.5505122184475008
-0.5052898151660016
-0.49442703999999976
-0.47851311171733385
-0.4311675263492875
-0.6010544103362575
-0.6506918418061307
-0.5416443347924035
-0.4772716119032859
-0.4321287192537706
-0.6009099999999999
-0.3978576967237554
-0.6750192891380276
-0.6772093095589446
-0.47503809127516755
-0.6030935183345846
-0.6606153682843483
-0.42322569707070384
-0.48321302060845595
-0.6896942565565131
-0.5860100554966026
-0.4439602319805738
-0.5439067664604712
-0.7858284062500002
-0.4546100811042167
-0.5178730493148981
-0.7544437675139494
-0.4567677604288472
-0.6034158400000001
-0.4726048121512709
-0.5231596854113709
-0.42999551973548233
-0.3579984191684624
-0.44723126828110743
-0.33584218865704824
-0.6222508142178136
-0.36993742276501357
-0.35985125196452833
-0.5468501539241383
-0.6577719079044552
-0.3662173306738233
-0.43413212552180175
-0.5010674704212631
-0.582937919394663
-0.6331996678317712
-0.488937574912172
-0.5509573611360138
-0.6216326415861672
-0.5374807574530175
-0.42610379840039614
-0.5010174288698702
-0.5472257095500855
-0.4043702179140141
-0.540607651875875
-0.7050396474642517
-0.5759507876834066
-0.4497239337741555
-0.5494819508103818
-0.5986389315974372
-0.3902096656582403
-0.5628370542739382
-0.6920895374898133
-0.5415720893882415
-0.5971940442189502
-0.5249964442010543
-0.41493277535229117
-0.5934880555729385
-0.7039350094311551
-0.4434269549307877
-0.4224115620307227
-0.6091063255698382
-0.7626164106198764
-0.42106480195910306
-0.5425939417397229
-0.7125775948338741
-0.4530312576045186
-0.6007224906798927
-0.5194897701019323
-0.46906095526521313
-0.389378723909899
-0.3333765154050065
-0.552340494523662
-0.38098140596314894
-0.31565926435251557
-0.28503061426625903
-0.3339520874086053
-0.4690579208910575
-0.6183578125645798
-0.274700928392346
-0.4109711246951849
-0.3476402675198686
-0.5533965315507922
-0.6511740749274818
-0.3748113801278994
-0.5074918635103014
-0.31555681238092176
-0.5495699990245817
-0.570782061673952
-0.5182600599297383
-0.46627270593097775
-0.43990432317883105
-0.5747153291328675
-0.6018880307231994
-0.3761215034676582
-0.49481571574974476
-0.5122037615011835
-0.40099909316382903
-0.4242056581615526
-0.6105573278402558
-0.6181033823517263
-0.4348026905140309
-0.5513603674654325
-0.47920281669766573
-0.3927116978787269
-0.43703541582893574
-0.5642645615657478
-0.591692959775958
-0.4654826453819177
-0.41792136433147387
-0.4130321253118557
-0.6183810894180884
-0.6027047913709928
-0.3795576752041913
-0.41572161239925626
-0.6523128008473459
-0.7307805638741973
-0.41212715500210323
-0.596485549946067
-0.7750403851027253
-0.49565008412830175
-0.7099367480884472
-0.6140321114992653
-0.43510584482194586
-0.32576800000000006
-0.3181525711451423
-0.376223936400022
-0.3391574088541667
-0.5235887808766949
-0.5417459615623063
-0.4302110564166686
-0.33242975624583865
-0.35872578239305636
-0.3543076251734636
-0.41466032
-0.28398055438522335
-0.49766078833226857
-0.5902104649721017
-0.45644567797439467
-0.49873054680719164
-0.22794588557932757
-0.45291030167083207
-0.5369575089989761
-0.5272408479713447
-0.5874007346262972
-0.3048306565088559
-0.4400099682925347
-0.5484846093077297
-0.46290535604584576
-0.3787450520768754
-0.45291317908721207
-0.3113755259273718
-0.4395767874230796
-0.5843534091522602
-0.4528510007935525
-0.42852991158712056
-0.3811946632090875
-0.4010930258542624
-0.3061740308996565
-0.4454024296251263
-0.5639172892195353
-0.4997592522583672
-0.4574016952342093
-0.388984
-0.41132101952766914
-0.33624958605510336
-0.4141510154990708
-0.5376408615497114
-0.36595431845965004
-0.36519137936763785
-0.45816729297225384
-0.6203388564603345
-0.5007744393328785
-0.38974328885116233
-0.4642002791412487
-0.7481656577103775
-0.7188270234375
-0.42849592370184725
-0.7233373253449451
-0.8590680836949786
-0.5932188319249675
-0.8012568800000003
-0.648524040917545
-0.32230154710976106
-0.2338433333333329
-0.261650502201004
-0.5265875721325459
-0.30779507248044147
-0.32574867187499984
-0.34255881084391865
-0.3568559991733827
-0.4672476943557638
-0.5388433846221554
-0.5059476524075219
-0.5049014920606928
-0.37958389234856044
-0.4019557009448427
-0.39791253333333315
-0.4900046733477998
-0.4716134945236617
-0.3546178930682913
-0.43693886574890023
-0.5206052895244482
-0.4991944444444452
-0.5901823732382606
-0.4176660361176267
-0.3751810614791255
-0.5720169170024804
-0.4808777267310093
-0.3314730402975821
-0.5272397747323269
-0.3697245778788331
-0.58080144283934
-0.4761873755787038
-0.285738851080968
-0.33411297256084876
-0.3959549041429979
-0.26352391990546126
-0.2779858768571976
-0.4824718505889649
-0.5373101084190951
-0.44658473301897644
-0.2837337671688678
-0.3747227788213772
-0.25987674656441023
-0.31413503896195233
-0.45829368888888894
-0.5576638131230458
-0.3641105443440235
-0.3935133333333334
-0.4586923756224544
-0.3107041150104565
-0.3523346896466213
-0.4564456251291586
-0.37898241696655893
-0.3648488932211764
-0.5697084912308769
-0.605130450881854
-0.45054439911546473
-0.3956068233128538
-0.5789351121117723
-0.7975757298114537
-0.6864429991319444
-0.4911201374763658
-0.7691783148002558
-0.8338961861954944
-0.606807873463038
-0.7385158666666661
-0.5392340979541221
-0.15437968765715218
-0.16313362884893604
-0.18427039626753403
-0.05057324484930784
-0.1626049194048357
-0.18404779608297597
-0.061922280991724026
-0.24688346145897969
-0.3114480860620025
-0.1537891232020581
-0.32958020568475427
-0.4320480268931221
-0.20185490350630705
-0.31603
-0.41453579143158287
-0.18972061586789826
-0.38428140070262407
-0.16742528127530673
-0.25581255980326995
-0.5815056632416892
-0.37610708095480055
-0.2394265688963634
-0.3008667273785647
-0.29712977194349555
-0.34584318776606754
-0.367189049915078
-0.5486569260755426
-0.4926999620747352
-0.43500533333333374
-0.5480022253301869
-0.46697914287308057
-0.3775580085894765
-0.38660088510550245
-0.4183219469061247
-0.5035265565111048
-0.42630043111386695
-0.40137902968334044
-0.6036337449906152
-0.49729011131088957
-0.3503053333333331
-0.5138536119948905
-0.40488930109866256
-0.5652601191231827
-0.5711470217013891
-0.33672517543968367
-0.23519872049747684
-0.49559349946930714
-0.4929240460505398
-0.5780998338499699
-0.3248266831597216
-0.18369204552324478
-0.3512464901915453
-0.3188000413308533
-0.31619578178764307
-0.17945498913958832
-0.3480704149617686
-0.5323232266666671
-0.5375509268988184
-0.30261081309718174
-0.33471952721585674
-0.3487992280654282
-0.23024813052589552
-0.38753066666666647
-0.5661980247985119
-0.34530202424295814
-0.3802854970035133
-0.4978780750141536
-0.40993970940736735
-0.30628196480029063
-0.44805130894812906
-0.36648556739208793
-0.4353933892926309
-0.6411189918299183
-0.5876855236445967
-0.38235314512881197
-0.4145457353920114
-0.6166484604422405
-0.7564994126259347
-0.5940823479718828
-0.491373791868661
-0.6741845212777524
-0.7280452564831857
-0.48677169611296617
-0.6407581867327964
-0.4532966228528873
-0.15279911965281937
-0.07122810450605639
-0.2512945833858042
-0.026441926119263087
-0.09863359176688745
-0.3756961370168926
-0.03620941579325441
-0.23913471831577118
-0.4846101243607341
-0.1331397599388473
-0.3346740398717553
-0.4842191927083333
-0.32833757082596693
-0.19435913048566936
-0.17924145484604256
-0.48931943645381276
-0.18317346993079042
-0.13580112310038128
-0.30232824731749824
-0.5522816221719395
-0.4661666075656605
-0.21822016283082546
-0.1648783432352893
-0.3366367256044636
-0.24897269828479815
-0.3980793581866799
-0.2281163452605596
-0.3849416929053007
-0.5758383747456238
-0.39663110250051714
-0.34369999999999995
-0.499719645509412
-0.5485602083199198
-0.33067843077190945
-0.290087470965075
-0.40068644148218086
-0.4125161132513216
-0.35265164855548653
-0.4683737977153976
-0.6043913486002768
-0.3802535078678157
-0.26123198870289965
-0.4612892820630885
-0.42904090656087424
-0.5833066320542121
-0.4138282546875
-0.21914434749394418
-0.29326222842419863
-0.5301124329730335
-0.5162601593855475
-0.42543423806571584
-0.1976688376132466
-0.2854057406636696
-0.34095522256664607
-0.27669072191224064
-0.3958487261863884
-0.2840707081845962
-0.21662052381336971
-0.45574233599999997
-0.5809419884874479
-0.32582882258369145
-0.3056262782425306
-0.5099214359460565
-0.2822883759441839
-0.2897711415306184
-0.5660444867947925
-0.3458825288267686
-0.3544197892126472
-0.4941606727713091
-0.5640894994870801
-0.3073112923313237
-0.3934715446815002
-0.34439684562853273
-0.5200796906633602
-0.6079802782406039
-0.5657791897072387
-0.3095003160220889
-0.4489347345187064
-0.5246118601088378
-0.704791684830186
-0.4534313435312371
-0.3964217281684113
-0.6167032420883216
-0.5790327347518168
-0.4396773309964634
-0.5928458354618723
-0.5250764568241839
-0.28572616966315273
-0.0912667350200727
-0.15972193364181966
-0.40936308878850064
-0.12765390393228684
-0.12741465104094254
-0.3038509038131509
-0.504344074820699
-0.07785406757536893
-0.24101487545623948
-0.4035334333311192
-0.5362728704277743
-0.14044986258580264
-0.3090457099278235
-0.43360133485944014
-0.2800051302010295
-0.20629741542345684
-0.1952082486050837
-0.5431086530274849
-0.3061336179524678
-0.16324137009161446
-0.1764180787110243
-0.41812538739409005
-0.4683084514706896
-0.5232491260463803
-0.27117697711088695
-0.16728836872238462
-0.22188619342135765
-0.48744716007647165
-0.35568457391727865
-0.22842259626617253
-0.23111853357625758
-0.4220815385033496
-0.5278167570089666
-0.3138162324860509
-0.29703107832196735
-0.3743561444738574
-0.5393668122776506
-0.33336502387145095
-0.26538975581731733
-0.37537514176391135
-0.3823288838075168
-0.34123152441413507
-0.4538394728266309
-0.4365058071775762
-0.26869177615655365
-0.3282078669835356
-0.4844194652535769
-0.39751411954260624
-0.4365381191654601
-0.2638513896764891
-0.3098497716617252
-0.3734099136185165
-0.5063853050456576
-0.46169307268443843
-0.2702227998097317
-0.2701900150577759
-0.48025544578544016
-0.28863157573878867
-0.24075418310900565
-0.3997452671913215
-0.5335148578310124
-0.20989364486666953
-0.34659749532548
-0.5991471611858444
-0.3300148156019702
-0.27856978349350653
-0.5527854770565329
-0.48349783727840484
-0.2264652356547497
-0.4989958098301574
-0.3363942700387544
-0.4069849514362475
-0.46715757775176797
-0.5732491130656358
-0.4328013387724729
-0.3199816991206537
-0.4391981551313738
-0.4787747316387681
-0.5697196207259912
-0.49252613627480696
-0.35428023349773335
-0.42503999458701597
-0.49753529387424916
-0.6202385138018109
-0.3965043349795713
-0.39932659547467697
-0.6366390070532512
-0.454907320243457
-0.576027247454818
-0.5311864792312457
-0.6065471828885145
-0.39297158779362057
-0.22853702463099437
-0.2422462347333966
-0.3201425436559082
-0.5327575029250642
-0.22069807839717367
-0.22967724070025178
-0.350678968733656
-0.428988788799747
-0.6161707999999999
-0.15533440363972914
-0.28265810284650167
-0.38096618838978397
-0.5090030258105397
-0.19668219177862026
-0.30482226690056985
-0.3591255203758959
-0.2279952335225253
-0.2599827407800427
-0.29140252738169115
-0.5149173333333338
-0.4055718577945304
-0.30432995089761966
-0.27236008601067235
-0.3397615546034975
-0.6442080609274443
-0.38104391134531873
-0.5224405449397569
-0.34931692709140605
-0.3082233085712625
-0.30633339917010205
-0.4616697464186279
-0.4127694768191561
-0.34086417043285966
-0.3066291998772978
-0.4522863637152776
-0.41275221029755277
-0.30010176416144413
-0.37188492973754844
-0.28523285102024326
-0.4178466443229815
-0.34586540194255017
-0.34238565249018466
-0.42794842166210084
-0.4636561704406165
-0.32176808000000007
-0.3699702516282193
-0.3046725393715424
-0.3281039776424394
-0.4308666666666667
-0.4547287195701593
-0.37875626383963673
-0.33688360497818876
-0.2922032377113358
-0.4961640739041477
-0.37052559688640935
-0.505131343237493
-0.43624314231039674
-0.23857673310152952
-0.47546524913194493
-0.542449356181436
-0.21701470164722578
-0.2721348722081017
-0.31408584759533115
-0.6305759936051983
-0.3683509938003724
-0.2625397928828273
-0.5939986787987604
-0.38280485311428786
-0.3181085187948281
-0.454502567883095
-0.5590133816184294
-0.3325903733333337
-0.3788640129542636
-0.3921585482618604
-0.46794246408268725
-0.466456410480733
-0.47521408134002224
-0.476909845891024
-0.4006156230626165
-0.5084598717201858
-0.4131436939429031
-0.5801208760909412
-0.44881290352403985
-0.4550720259003513
-0.4127935480806357
-0.6056886901897265
-0.509762828537094
-0.4504371083292957
-0.5878228491956278
-0.590057471398106
-0.4498508655696369
-0.673334734457013
-0.5168686805994831
-0.6626616614362308
-0.3674322222222219
-0.33161593409159623
-0.40354167335002883
-0.3918363674343406
-0.46939171324926393
-0.7679053750774952
-0.21997217400289384
-0.3223839804548759
-0.4563249226940654
-0.4028613023781186
-0.5804849125756915
-0.25975154577391985
-0.34572495377861306
-0.42618834772169195
-0.4132816497217861
-0.35751166838878495
-0.35933393328062757
-0.3177659078983907
-0.3116923406339609
-0.4104755503875958
-0.45751999999999915
-0.42182120000000006
-0.402440328945102
-0.4035755360618383
-0.47060195273014865
-0.4163736496194446
-0.6072038761696055
-0.3393967773211866
-0.4255337608035214
-0.38288983940972204
-0.4362295955203715
-0.4996815107182459
-0.5063491938842677
-0.5372712090969376
-0.4915299975121366
-0.3520086181717988
-0.3867153479166667
-0.3240413258703476
-0.400760039615994
-0.46832120000000005
-0.35239737590871917
-0.3258271819101655
-0.3159033719776812
-0.3829765777777785
-0.556580828356802
-0.49748302059654237
-0.3163516
-0.3561003898454589
-0.3471825294507563
-0.4558253492218984
-0.4476166666666665
-0.42269738028518294
-0.45210247756054994
-0.3589758937330067
-0.40784240104166675
-0.5594209254551843
-0.3082665713131686
-0.5732600753494188
-0.4153553401139433
-0.3206801742095475
-0.5671601837384266
-0.4401084375201727
-0.2552785268820945
-0.36833115357057755
-0.3269948447783159
-0.5053094905746037
-0.4778011899841572
-0.30010217600000005
-0.5035645782556601
-0.4116128096987844
-0.4506738102171332
-0.43170655360006954
-0.44304066322187263
-0.4322427555555562
-0.3696729597024177
-0.46408886311855707
-0.38758999999999993
-0.5385255289511891
-0.48861325527732963
-0.3878664865529402
-0.491044266721775
-0.46231924872420854
-0.509266144193201
-0.6049269423711584
-0.48570357143119786
-0.4451143133486268
-0.543735855850202
-0.6614722621757778
-0.4806726764966451
-0.4856760677083334
-0.7108151141107758
-0.52851090787693
-0.5145425201487911
-0.6587198632170297
-0.5915668
-0.75607833849969
-0.2656859999999991
-0.326115476307977
-0.4820092196443819
-0.5323432036848784
-0.4293264846001772
-0.7029072597519851
-0.1627304248811738
-0.39151577486720973
-0.5203957601266613
-0.4737305150264242
-0.4548466505063035
-0.32252498512089284
-0.4733547509808815
-0.5333162009854249
-0.39515601195955524
-0.5280312488117388
-0.5170224134378875
-0.465479521697623
-0.5304150530101047
-0.5949406650129198
-0.6055
-0.3405009543294069
-0.29105527703721995
-0.3923344637572903
-0.5625677651101045
-0.5532053192761152
-0.5336945839043443
-0.4242835644792695
-0.31963500596894984
-0.3024196293402773
-0.4357969851196539
-0.6273679542615814
-0.5807896236454966
-0.6558351843928935
-0.5106189994351448
-0.30008785637528407
-0.2999317169116378
-0.3864308580050017
-0.5305358317834266
-0.490392
-0.48671175513946
-0.38658666452165247
-0.30122888403883424
-0.34871253333333363
-0.5801302757675001
-0.44631142963422216
-0.3643109549493701
-0.4385922474022626
-0.4619990137430476
-0.5018301471056273
-0.4239147282496382
-0.45495779402411757
-0.5237459631892457
-0.43695667059815935
-0.4684704227430558
-0.5031622895804441
-0.3068757587882197
-0.5906946522035199
-0.42811680182682466
-0.41090511696631543
-0.48963294706206634
-0.39109877506802987
-0.3596923167176516
-0.3797290675015074
-0.4656155232200501
-0.43452505948660963
-0.41395260580482884
-0.3836497866666669
-0.44771845705774366
-0.37169128505590343
-0.5219466315760696
-0.5467425348223892
-0.42313424566208563
-0.3753402739960053
-0.4090391134531928
-0.46128997016989
-0.5972885747723793
-0.5969301360649252
-0.4294544246915588
-0.44021968655343596
-0.5024721521642802
-0.6312515021726507
-0.6021436675550601
-0.5176538225471418
-0.6563621845238307
-0.5953507540337687
-0.5357183537772308
-0.623647718751302
-0.5717906150825635
-0.682495571265926
-0.20870990183922225
-0.2218209682073894
-0.4777127191275207
-0.59035196108211
-0.4729165656062329
-0.544709164718954
-0.12942678824740655
-0.3825928319124365
-0.5671727494489219
-0.5945528076198804
-0.4198092090514569
-0.3071409733515286
-0.5809878131579057
-0.6619748161229532
-0.5728160757430821
-0.5824183334973255
-0.6760607939864299
-0.7021408116319438
-0.7117403338086676
-0.6897000419067085
-0.6440601963215538
-0.4081185895846242
-0.1817669515799993
-0.2772201674539974
-0.5133549882714418
-0.6162795099383106
-0.5080186877408741
-0.5726622812564578
-0.3724277543312536
-0.1844138270455354
-0.32888769868334417
-0.5743694021492053
-0.6284880940928054
-0.6043940119325228
-0.4167843934531923
-0.21113731191386764
-0.34243770299853105
-0.5491913220061323
-0.5773982713370537
-0.4971492374457531
-0.5432050970583825
-0.5421879291224294
-0.36094380841861784
-0.286811206364951
-0.4887137209977774
-0.374033233154698
-0.4286559927588342
-0.5588177363634764
-0.5181237370154932
-0.491141049794889
-0.409526313287869
-0.5052857914339562
-0.5778229366645996
-0.48912049384305706
-0.43709022681812715
-0.4596189125251921
-0.3421845781492005
-0.5854744651818303
-0.45257977098574126
-0.38242588796930127
-0.4347477508871603
-0.4349018933850282
-0.3504142515818666
-0.3327702851828893
-0.4974356191660683
-0.49263928531279794
-0.37912376808144793
-0.3477650725025836
-0.43000203137877874
-0.4689194404209498
-0.5810107430217802
-0.5255172160598088
-0.366970553544121
-0.3601436237224242
-0.5636856324616185
-0.6021714823662326
-0.5599178460959103
-0.4355286561656068
-0.5900805184556926
-0.5837839003871074
-0.5925643399401206
-0.5489799322252206
-0.5630104501756562
-0.5347906333101319
-0.3127876200316856
-0.09597778168400169
-0.408899836445256
-0.554343937044587
-0.5540666880353123
-0.46177485800046025
-0.21728717768585692
-0.2708353192623792
-0.5775358562977894
-0.6440351656456236
-0.5374678097954128
-0.3196456992393122
-0.5547169252407387
-0.7108998121355511
-0.7433662554246742
-0.5718665556120995
-0.7117517923134433
-0.8041434427083337
-0.740584726354656
-0.6747643071686603
-0.5621498625749128
-0.5512287999999999
-0.2542524726104709
-0.12209237613007053
-0.4111167030939333
-0.534349395674038
-0.5266687375523079
-0.631894208169732
-0.5503235120590239
-0.20971573123141415
-0.18713106437199878
-0.44804145068815865
-0.5326169867651164
-0.4659673087245641
-0.2866074770252931
-0.20263748252641775
-0.5073945505208334
-0.6258203527349001
-0.5672992107978586
-0.510699884686919
-0.5097747955648001
-0.6140895502928673
-0.4846247277123372
-0.24645564890817595
-0.36195459069093766
-0.3225931338444892
-0.5030435840000002
-0.5920264319210418
-0.45349242303702814
-0.48466158679369703
-0.3831188182820136
-0.5542086011159331
-0.5633570604257071
-0.3992803082406915
-0.40317236845729343
-0.43617321032522777
-0.32951985437805353
-0.542656223566862
-0.3495484546734515
-0.3194649084693913
-0.4568134610997561
-0.41991958937115054
-0.29573341909485423
-0.3933254020550447
-0.4877536346670204
-0.44884124477049286
-0.2844243572225666
-0.3374644946156398
-0.47851213337837734
-0.532114068425047
-0.4599286010470495
-0.3356677625619337
-0.5302146540776679
-0.5463648356758527
-0.5014313374938367
-0.512451256653785
-0.5003074528208308
-0.4002366983732991
-0.48137999999999964
-0.12803434890872797
-0.26745673875001
-0.4895626579686106
-0.5256225507390185
-0.4769552727676184
-0.3931018338499693
-0.2157531393232789
-0.493700129982616
-0.5892031653825583
-0.6041894666666668
-0.42545863236205833
-0.48181141664735644
-0.6517191058429713
-0.7344403769373837
-0.5892124767513957
-0.6566004038186274
-0.7608449182989122
-0.6569614893622643
-0.6403249368475452
-0.486896
-0.586413333333333
-0.47271994209188345
-0.09735964524677303
-0.2883490733335909
-0.4215558563008883
-0.4607027563766198
-0.5754477553413345
-0.6318108093082855
-0.3988315920138881
-0.10902885775626801
-0.3309153843935278
-0.3935632518979711
-0.3482273985588114
-0.1540195559365962
-0.3196237210167381
-0.5906225625
-0.5419493460088668
-0.5923895259113451
-0.49193369828476935
-0.48657495667140127
-0.49926878979771355
-0.5299557685472204
-0.29256373333333224
-0.21259661518866044
-0.34397602769167074
-0.5129934400000001
-0.4357190777882866
-0.36785722304926094
-0.46048369077992274
-0.36552504117140355
-0.5492479396569536
-0.3930904377102582
-0.25952290651217896
-0.4089579254306373
-0.4041164619401639
-0.34787474064889473
-0.4075125766265619
-0.2094450488739262
-0.3409447839270128
-0.4614764016899045
-0.37316331196385505
-0.41562650094770365
-0.4939159070513964
-0.3228796702955157
-0.26423183068804457
-0.47531066458116283
-0.5033992762239451
-0.38840683198700604
-0.48248464583591666
-0.4857183031837043
-0.3866585029826504
-0.5186277777777775
-0.3562943593617651
-0.1733929727496154
-0.41417940455739294
-0.4349226979720928
-0.4661874994833645
-0.4745000123992564
-0.35633316347791405
-0.397415529157813
-0.5124333892397642
-0.5610391200000001
-0.472685294482331
-0.5120301525184865
-0.5946953069746069
-0.6618572301746105
-0.5259096917407176
-0.6173505686513718
-0.7206088688786746
-0.5671646671213342
-0.5442356906115411
-0.45564666666666653
-0.4919190245918585
-0.5812240127858032
-0.29520303837580547
-0.17458109563780588
-0.36082924914639486
-0.3749344517435373
-0.5770680462203476
-0.5299358107111748
-0.5229298350694443
-0.215510312884042
-0.19371768649949395
-0.31819506848635776
-0.2122788335677828
-0.16718898793965742
-0.428480604808156
-0.4894787517065134
-0.46896373910917605
-0.6020885930731704
-0.45101002811369545
-0.4686599731474151
-0.3576170110366885
-0.4206124610969189
-0.38558755555555563
-0.1873695850149141
-0.4235915664393466
-0.41126697686298885
-0.2503210511140556
-0.33766426827363083
-0.4148910055860544
-0.425633333333333
-0.4772102169923622
-0.2211611527767449
-0.2293726772087217
-0.41787916336024966
-0.4239603548473762
-0.30501583178557923
-0.21046905701619836
-0.4082045061733233
-0.46206454427083327
-0.5096623072948957
-0.41167478462842344
-0.2988930947968665
-0.5191238666666668
-0.43362102463248364
-0.4426753068815869
-0.4191524591857827
-0.5221078609806894
-0.2964010079440805
-0.34891333569913213
-0.4003653672917362
-0.44732041909485437
-0.40139699588369887
-0.49446010550175085
-0.44166966722635626
-0.5234482860496411
-0.5371899902459187
-0.3914842387346205
-0.5215616128403776
-0.6154509246150943
-0.7092430384163616
-0.38004673090437135
-0.5373515925645768
-0.7194765651041667
-0.4931404728542787
-0.3849600952510644
-0.3883428208307506
-0.4548034655920645
-0.4961646222023071
-0.49064161627405994
-0.23119948039372437
-0.32287969095659813
-0.3591751776956893
-0.6056342275987142
-0.4315651243451116
-0.4725793121363822
-0.4064679816497509
-0.19264238135151893
-0.2902158709224682
-0.20665162457581743
-0.34266107777089005
-0.4269662689445361
-0.37056281149417475
-0.4528163004089419
-0.5168736955370693
-0.4510779999999999
-0.4040795257944938
-0.30419635054801025
-0.3005284615603845
-0.43306718192464005
-0.33962246302462434
-0.4886948276747258
-0.31654805222566645
-0.18958080733898178
-0.3339061172330133
-0.4122242847045694
-0.42688345172150166
-0.19327417609730144
-0.29275819027164324
-0.4321090885416667
-0.3025707606806543
-0.3155047201053787
-0.46227947861128355
-0.4870732
-0.37500391359540947
-0.46950617606943584
-0.33477481711097296
-0.46747433411537104
-0.4841622561372017
-0.38867313795978903
-0.4657817545274992
-0.4814827301584681
-0.30506019756814157
-0.42758342364289365
-0.5295069692770406
-0.6086962569853775
-0.6365686861748286
-0.33496545846402975
-0.3811357671872208
-0.615368390567129
-0.8069426057036574
-0.34133193285959157
-0.359149663831209
-0.6856538064236108
-0.37473118498201524
-0.33265665829796986
-0.3465057625542467
-0.4666153967761933
-0.38793237966963007
-0.47567679368203625
-0.42117873647506826
-0.3602245369539172
-0.4218415196661387
-0.5069967370339942
-0.41084440726406707
-0.39688393924741283
-0.45925337437993247
-0.37472349489564044
-0.36151051591820876
-0.3822130816359955
-0.4646195340880072
-0.3912739601421189
-0.33401008873136884
-0.39376920974777835
-0.43783054040090924
-0.3595746987833714
-0.29719990538899127
-0.25418569442566424
-0.43475833477991377
-0.4814260338695329
-0.5149396992405296
-0.27964104709237425
-0.22937286685392158
-0.34189655634611554
-0.3983784695998502
-0.25689137382201993
-0.3592636742773215
-0.33547922123908064
-0.4163816276916715
-0.4651700898177354
-0.2847694575325472
-0.34527560872584684
-0.45616921800246263
-0.4992208115378003
-0.5686893956217046
-0.5689480694865682
-0.2515664445882777
-0.3045651034065849
-0.4481599239266492
-0.6476822299777908
-0.7452415200000001
-0.3449813105089909
-0.26670931364769673
-0.48991087211921114
-0.7979615912378587
-0.4022250671661605
-0.2532488163469537
-0.5658529641164247
-0.28333281352603606
-0.41534298236048356
-0.4133250000000005
-0.4028212136434113
-0.3407706265959866
-0.38112946363896866
-0.4549532935665754
-0.4690699248605093
-0.5225060102579969
-0.40309530378177344
-0.38054557556268515
-0.38073257155942203
-0.4090989677050671
-0.48143974021711083
-0.4841289081234527
-0.5263306620480047
-0.46185412304069523
-0.37839113536394803
-0.33585345801787264
-0.3384327720018408
-0.3090306769905004
-0.2663328340924433
-0.41082865811118024
-0.5116007627304906
-0.4919642671518237
-0.27668383523720935
-0.3041911955772529
-0.35916965690585695
-0.3584274886960119
-0.43387734213337176
-0.25854877622738975
-0.2934355148178475
-0.3207849121033606
-0.48523558764214
-0.5939316713316102
-0.6228376367017979
-0.24067976701167748
-0.2872765873375896
-0.31273346976764055
-0.5779877698001621
-0.7067081333333328
-0.3254386552122534
-0.3034821521426261
-0.3647143776102471
-0.6884112249197895
-0.4131090885719128
-0.33507243481539545
-0.42298314862397307
-0.3478974991242279
-0.49764935425269535
-0.4976702056847543
-0.34190800000000005
-0.32869768876674677
-0.3652458523099054
-0.3557146098562638
-0.5191098698684543
-0.5359918627132155
-0.3391516907433814
-0.3855673871115061
-0.4141136592944565
-0.4483990750743823
-0.5716192965773824
-0.545658723155153
-0.46079482392057963
-0.37486309755331004
-0.3415088411458333
-0.3238988158710478
-0.37104872456158566
-0.5083363275516087
-0.42338162899631754
-0.3504932800000001
-0.4215507861128332
-0.256563333333333
-0.2924910325364491
-0.3095006623495626
-0.3913958156403303
-0.5643385210845598
-0.5390662099607352
-0.20960527588344707
-0.30451574479618304
-0.3269651178163882
-0.4890204934911934
-0.6159042235172559
-0.2252231246125232
-0.37480512965297846
-0.3915136798361302
-0.5520056989657806
-0.31201997313494584
-0.47517694681432227
-0.39812962143925024
-0.47690564429731
-0.4175169726098188
-0.41003
-0.3030860588587841
-0.38101170231855547
-0.37385082989987395
-0.5121126662956249
-0.5258267650652669
-0.36167535156249997
-0.4380427828892745
-0.4755652929958299
-0.6267104784003851
-0.5559286056217518
-0.45812695800305486