<?xml version="1.0" encoding="UTF-8"?>
<VTKFile type="UnstructuredGrid" version="0.1" byte_order="LittleEndian">
<UnstructuredGrid>
<Piece NumberOfPoints="1536" NumberOfCells="6750">
<PointData>
<DataArray type="Float64" Name="f" Format="ascii">
-0.5124309959286593
-0.31723
-0.52449602981361
-0.4023062266724539
-0.33371165974331946
-0.42729816451602437
-0.47578770543541976
-0.36944731770833333
-0.4709164725018689
-0.42636803415288155
-0.37988970861748295
-0.4904772943152936
-0.4157679060078117
-0.35611000000000004
-0.4574046955421913
-0.3942769148132262
-0.33310896466212025
-0.3988020959036218
-0.5986008890485756
-0.619604908038851
-0.6103923167475126
-0.6295458705377631
-0.507864274643521
-0.48204847975514736
-0.6255384170860178
-0.3617705645047024
-0.5227453136362562
-0.6016787160494025
-0.33007702252531584
-0.5224842225857509
-0.5674471111158064
-0.3380569581657716
-0.5116111309567968
-0.47947855052441685
-0.5021275671833024
-0.47363121178385387
-0.7089961452739403
-0.5800958865468072
-0.5322435483259064
-0.6740895567984114
-0.720663523465261
-0.4074819647775562
-0.7062638391984956
-0.552820833849969
-0.6556119638528233
-0.2981073643567127
-0.5897643759190175
-0.24001671481711104
-0.7038696731105172
-0.5384315933353443
-0.5644490338322304
-0.24541209720962923
-0.681345290016218
-0.48612818974494326
-0.5069577883056712
-0.6751736114256045
-0.44064124340688965
-0.6230275241552526
-0.4674633882207067
-0.5169410812028277
-0.6368294791612253
-0.5251882723703243
-0.4629583894116704
-0.7464650115525036
-0.6335164229447746
-0.40781503173542255
-0.6616856021963525
-0.7788668431611375
-0.5766527838104222
-0.387845722988219
-0.6525266216236756
-0.4817190535234546
-0.7730355659427858
-0.5251497742366683
-0.3455129236619147
-0.49834706459778083
-0.3136284224233598
-0.7716654332925331
-0.6342712317113492
-0.47605242724501934
-0.4746428625830203
-0.8068900707195789
-0.62700616666603
-0.41116710136983775
-0.7729690734497464
-0.6893352535469112
-0.3437541595481122
-0.7380851221121701
-0.3806550545153953
-0.4824280651741178
-0.5231701224431332
-0.49934
-0.4737776202285735
-0.524601040038979
-0.49802088107638826
-0.6550818492770368
-0.7008129288018398
-0.6923707556660097
-0.5404084444437571
-0.5743051828890258
-0.48868416442665114
-0.7093457413383247
-0.7243386235053548
-0.5585806068798983
-0.5896862666666658
-0.4365614077278845
-0.373166666666667
-0.7382213488057857
-0.7670713079362003
-0.5265392538732095
-0.5418599586691454
-0.48960597992356664
-0.821214509363564
-0.7947461117274949
-0.42236287496621466
-0.4560063957261245
-0.8097805909860974
-0.9016807800286389
-0.4609866256427982
-0.4190061458333331
-0.9444548074628103
-0.5922072293100663
-0.3181680822483983
-0.7129017035073936
-0.3323751999999999
-0.4458676978714609
-0.42379691914494916
-0.54084
-0.5429214455948913
-0.47335298006330556
-0.5800908333333333
-0.5123082201690883
-0.5759207179666389
-0.6597357427154371
-0.5646927113649144
-0.6586543940372876
-0.5105246485470278
-0.6833594581826614
-0.67278490828908
-0.6682424374331647
-0.6903975200000002
-0.301778875179973
-0.4673100165692729
-0.7453657870110367
-0.7607209569668641
-0.6420255348778255
-0.6704972213267205
-0.32244331769940193
-0.383082
-0.5153583567141138
-0.829948302657911
-0.7702260824004056
-0.564882034824851
-0.7280726474389675
-0.9366657238904764
-0.6343656637501364
-0.350226819278375
-0.5258245896211794
-0.9702377880043067
-0.804734492126753
-0.38058176507835745
-0.4915469739583332
-0.8987880576150574
-0.4973182904554267
-0.3658974593924365
-0.6264559224268228
-0.38748816000000014
-0.5165952486050838
-0.4341424117634896
-0.6277435120892749
-0.6083506907980404
-0.5052214365443768
-0.6038144022175508
-0.35347731590549053
-0.5963840362240026
-0.6118757264515667
-0.4447239868366141
-0.5689646375222647
-0.6775433354950482
-0.5845891285389538
-0.6277583249685
-0.6055329081108151
-0.583987381844173
-0.34947376902941313
-0.5592221173824664
-0.7018300757830006
-0.7579277398407692
-0.6505542636724738
-0.5722135309341444
-0.33149380498894354
-0.35236011370033365
-0.6057292959020586
-0.779747986527031
-0.7206025461045674
-0.5685025826409313
-0.44283341622699574
-0.47137076152097585
-0.431349170434249
-0.7067387450683583
-0.8124999230085117
-0.6206202466304874
-0.799136998273254
-0.8332051713329139
-0.5398140895248146
-0.4650616744679185
-0.5961599349391404
-0.8783246164579649
-0.6775307448370875
-0.41319244632387675
-0.5444127835939653
-0.7618540463065714
-0.4714711128046793
-0.435913371923744
-0.6034904289384347
-0.47728009679685895
-0.5844651281493476
-0.5414604118722648
-0.5909468888200048
-0.5908035065783875
-0.3157485916511681
-0.566003237047933
-0.600340913717269
-0.5822781318458593
-0.5793346776199836
-0.39806963240940146
-0.3952098729076265
-0.6079679360834115
-0.4946132910518706
-0.5278885973298556
-0.4537332237345015
-0.6123390992538793
-0.5660047785504213
-0.44138064716416714
-0.6393439502480817
-0.5994451875925647
-0.6005225102839251
-0.523052216367018
-0.42500691093200965
-0.5050551756394063
-0.6383573360653064
-0.6997501688604312
-0.6208641842281467
-0.4973415335188036
-0.5379279144835042
-0.5016161252900138
-0.5383616831250108
-0.6904341973859615
-0.6760728763794179
-0.5338072632943203
-0.6187178482301655
-0.4819801012605912
-0.5550718107089961
-0.6054979460577278
-0.7257304970118739
-0.6063859517979246
-0.7051529486444242
-0.6723851583385003
-0.5478044233376079
-0.5594906884888852
-0.5617631436310201
-0.6769596985518965
-0.5752463682909693
-0.44480501790204147
-0.5431447838162263
-0.63749444571277
-0.4627909676588792
-0.48154742576461107
-0.5623543602304153
-0.4806905387890063
-0.5041324079379588
-0.5584079590185073
-0.45177600000000007
-0.5022751829623661
-0.5767453042137768
-0.5458751250000001
-0.4052974719995009
-0.26276595412275267
-0.4318300198250426
-0.5864363585010941
-0.5392111022938623
-0.5909025377303009
-0.4788817600000001
-0.4577918753781957
-0.29310287156537834
-0.49750507267341876
-0.5339513873654221
-0.45245200495970245
-0.5217893172383353
-0.39686097237775114
-0.5089907108375514
-0.615305609285665
-0.4801128197265579
-0.5412165760144608
-0.5146095938300056
-0.5840981391778827
-0.5763227506640951
-0.6000905846249226
-0.6803358224744828
-0.610747824103496
-0.5717204272236144
-0.648141023832247
-0.548126437098574
-0.5030122968495911
-0.6681604348978355
-0.7025714285896622
-0.6041773657724027
-0.5892889065399145
-0.6352710085279333
-0.5199402601187886
-0.6679705507214906
-0.41066600000000003
-0.6432681093858593
-0.563523943996758
-0.5803012320176356
-0.5691605289362738
-0.5185116881001612
-0.5048335061872287
-0.5276610599830777
-0.5807821213884931
-0.42895706603013206
-0.4633868483501032
-0.4701416333574196
-0.47612581032866425
-0.4642742057291667
-0.4881588141311441
-0.4302497456210352
-0.4617350353378796
-0.42835058745709587
-0.42486024000000006
-0.39992693862368256
-0.4925247499121666
-0.3534633333333331
-0.3640476278752551
-0.482572188359151
-0.5380584011601227
-0.38919327690972144
-0.5681130521514154
-0.42394874354205364
-0.4989585663288813
-0.2779873333005996
-0.33739441041537593
-0.2415312094313092
-0.5086561030095021
-0.5689445600671851
-0.4594255999999997
-0.5327223230437935
-0.5201468009919408
-0.5505725946167884
-0.26735501261679845
-0.32859848955364607
-0.5897322222222224
-0.5382894636656409
-0.5710697592152448
-0.37667576548266796
-0.4051930505974682
-0.5598856940913884
-0.6201917912791898
-0.5654285219157663
-0.48276669101556163
-0.5100989818715652
-0.5774311574074075
-0.5624854446540107
-0.7695555589949895
-0.8590683468202033
-0.7349195088352549
-0.5177943936516235
-0.6010097506371843
-0.5568360492663778
-0.5233328640618048
-0.6027731718850117
-0.7783216360447827
-0.6634013063545706
-0.4643362090117656
-0.5721897777777781
-0.5477912949440685
-0.5666441540870136
-0.36728666666666665
-0.6588180916747337
-0.5434385648796046
-0.3684530441826821
-0.4966533526210653
-0.28128880613049523
-0.3983128337831039
-0.5309819145274867
-0.539116646250435
-0.3446000136400272
-0.3091003638763991
-0.4145141457518371
-0.5016124060491266
-0.3959766623263889
-0.34751738149754813
-0.4249999977018622
-0.42604282909692076
-0.36100493658450755
-0.3884318666666666
-0.35771987807398214
-0.47419697315394704
-0.35128965282083047
-0.27569760879730915
-0.5556811015314366
-0.40673350278983267
-0.3212634436306443
-0.6747473469134756
-0.4058634862574911
-0.37420839196912764
-0.6780086702858351
-0.3372911235142123
-0.33995068441081416
-0.540242576337411
-0.28033
-0.29435405728811453
-0.39088557980449345
-0.5366378693945028
-0.4436423754428216
-0.28211384445284
-0.4046617152419492
-0.5609542715470391
-0.435252932077536
-0.3777413717839668
-0.46889059292007934
-0.48125234569125824
-0.5762616430663724
-0.3372743729536316
-0.26756060002038845
-0.5398626666666658
-0.19671345983193542
-0.35729336597344136
-0.5984612825705642
-0.5176579448474458
-0.5579242660192607
-0.594138620166591
-0.6072542573837564
-0.4641579898645923
-0.2573606813545268
-0.5022675235910463
-0.5815906666666667
-0.6382336562397863
-0.5685295893583165
-0.3903737635684081
-0.5325931076388885
-0.5025905601917872
-0.6519784295272855
-0.610314841051477
-0.5060114532068246
-0.5749381667699934
-0.47698822222222165
-0.5761273595159474
-0.8729191321635396
-0.8176860508369491
-0.7796009969463674
-0.5245490198947719
-0.4484784879107249
-0.5826591733333334
-0.5676133763326884
-0.5243437884142442
-0.7266329604755803
-0.6938948152016642
-0.43474523170416096
-0.38052071999999965
-0.5650894577392025
-0.5176711532460009
-0.37780479851208915
-0.6510004976681429
-0.5824121890631146
-0.2752346393572473
-0.31914897540814147
-0.1615655874983757
-0.4151555275439389
-0.5773146647733394
-0.5407186904819453
-0.389326112569162
-0.28313092453013844
-0.45369589220086765
-0.5362312153322223
-0.4458000965489808
-0.3490781683054873
-0.46456981726221264
-0.4549083408980579
-0.3999543518554148
-0.38835721711097326
-0.3376038480203277
-0.62015384342495
-0.40049873264241337
-0.3304685491457753
-0.7338571701612749
-0.4849983570828941
-0.38263009893303984
-0.8116613580039195
-0.5356241913572853
-0.35600522491925085
-0.7802457206765431
-0.4723326637558856
-0.3377040234375
-0.3941530347943632
-0.6385218845165767
-0.4985832682372388
-0.5416242362058278
-0.5607873488823211
-0.3316490477379644
-0.44747815665226237
-0.3192376452758355
-0.48236044144668705
-0.5155079000302797
-0.42479780150136826
-0.5577914681959084
-0.5563689321254235
-0.5878947956544182
-0.5422368145887783
-0.5172603964056689
-0.22501163622500445
-0.45098600399531436
-0.6241304
-0.3908479816684746
-0.3201758607271588
-0.6165336669389171
-0.5880923244471993
-0.6376770567250533
-0.6444577249880536
-0.6854660896466211
-0.47803304591511936
-0.44377519973933116
-0.5424513912083827
-0.5129514744781981
-0.7043328195950523
-0.5889497740004668
-0.5068008091025967
-0.5262398677083334
-0.43067147826837604
-0.7014451623986934
-0.6297704298032948
-0.5463377413652958
-0.5027564026038435
-0.4161375172714176
-0.6374235330566657
-0.8437707625542467
-0.7203653268581656
-0.7716108539865564
-0.6119958988612502
-0.354359160957517
-0.46591963200000014
-0.5783901125657199
-0.5060546130502741
-0.7032360054988088
-0.7201997806655561
-0.5374270245542809
-0.2283537145553485
-0.45043414407935517
-0.5665569014269285
-0.39466246745195294
-0.6738029378545588
-0.6447169582643576
-0.3701612978542493
-0.16132044371626386
-0.23454650563044274
-0.5068757999752016
-0.6153385133107728
-0.5991538076152717
-0.4524723090898756
-0.397256060963137
-0.5165603097471932
-0.5513113758669205
-0.5203202555530261
-0.44518306071454555
-0.45299144284678233
-0.5193675678192414
-0.3997056658836375
-0.44679114321140734
-0.3822501725633598
-0.6534839863608186
-0.5537887812654615
-0.3729929875368729
-0.45785922099700854
-0.7214351954791782
-0.6037435323823425
-0.42133898351309074
-0.3763894467294964
-0.709984135051959
-0.6224872483489502
-0.4123923051505811
-0.35195235895846255
-0.6611985138425688
-0.5587149372123522
-0.4194824416905521
-0.49044793244538726
-0.5910909322885283
-0.5354386453812772
-0.4097328600950601
-0.5718984237772152
-0.4257569312989043
-0.4739002942276613
-0.5302010587724731
-0.33609540022043133
-0.3480785920291513
-0.560781964528656
-0.4943178243169796
-0.6336600117125678
-0.5399783749069699
-0.6916302296749163
-0.6128453796181487
-0.641816228401074
-0.4889481295851415
-0.31014985470134
-0.5765127722669965
-0.5162862448853062
-0.5157652786928376
-0.43712898206762874
-0.6708675588701385
-0.7067402047117176
-0.6619085106688541
-0.7143212054420153
-0.7564011259681752
-0.5387635501652907
-0.5196650668483501
-0.43989150932265164
-0.5236234011848182
-0.7394250284981744
-0.5774957259213331
-0.49382359252377855
-0.4288075888559532
-0.49163947080545195
-0.717030464145484
-0.5876370786839863
-0.46451131204794344
-0.35790138726285803
-0.4929902543269134
-0.707968651619201
-0.7615976741062199
-0.6379310218404396
-0.7705716907336435
-0.7019930200734481
-0.4110974998181795
-0.25821173542467357
-0.467778036129008
-0.416655764723098
-0.7052554544174385
-0.7309040792153164
-0.6418431894115119
-0.2517144735551424
-0.23412468147312995
-0.5191777196470982
-0.40580653027485025
-0.6879108732120508
-0.6382018466208309
-0.5117781038561678
-0.15957129449168364
-0.4156885243537501
-0.5369417938417024
-0.5832259208440589
-0.5786911199220133
-0.46451667164147487
-0.5061573722199526
-0.4728346627924913
-0.5329014801402434
-0.5205046383873215
-0.44083258194697156
-0.4405172529481798
-0.5326884511688651
-0.39830470982670435
-0.5043351361438315
-0.4680124791555288
-0.4792485782186393
-0.5852163891836887
-0.44228185919917107
-0.4860129496876197
-0.37903836167441934
-0.4878926801217842
-0.5724986464934189
-0.4856932482027643
-0.4399366470871568
-0.32202479999999994
-0.46049738662617484
-0.5777174502942445
-0.4713802988652637
-0.44188085549504663
-0.47601608726942596
-0.5586852615775793
-0.4676013363467722
-0.5199390623115469
-0.492881682611725
-0.48296647241165486
-0.27472533333333365
-0.4467677193679975
-0.5021242668605511
-0.5300254734871176
-0.633699796995765
-0.39230935493367114
-0.3835624810911357
-0.3117978525637051
-0.5706482144721489
-0.589890412965834
-0.690228434861332
-0.7091785361805885
-0.7332347980496151
-0.7018067533355192
-0.7470425200196059
-0.5104048888888889
-0.4014677654920591
-0.47850694973528785
-0.44974065964042165
-0.42145160616252625
-0.4721923844931803
-0.6746300733622657
-0.833692005731212
-0.7182194748269285
-0.7961109727411538
-0.7313516266666671
-0.4811551415672693
-0.40075728792658377
-0.4271165993662045
-0.5535960000000008
-0.6969604062822902
-0.46945234205414316
-0.32088472282762304
-0.4045047054705797
-0.5864864337942014
-0.6645545133291992
-0.46160503964020866
-0.25296898621914
-0.28140548185631936
-0.5799224843750005
-0.7369698702284483
-0.6495138672207262
-0.44670213807957815
-0.7353766559955316
-0.7242808777030091
-0.4981361326720409
-0.14051398258317857
-0.2591899921172844
-0.3699776164698081
-0.5564478940706098
-0.6900327782783933
-0.6367488251687807
-0.373316960000001
-0.10753725872619757
-0.4640523828783431
-0.36773443824289437
-0.5874591351948607
-0.5552107904932649
-0.5434604710890677
-0.3044775995040304
-0.5355895920028086
-0.4554121968497338
-0.4985727124943627
-0.5272822646927308
-0.3881920843885455
-0.4728632330293702
-0.38537952103320255
-0.5242003045892255
-0.4035299159493438
-0.35766119901558696
-0.49140470782618745
-0.40599679535011957
-0.4732607278483077
-0.4125364782222229
-0.4274681645269143
-0.2512100000000008
-0.45412046478241014
-0.47550249312267684
-0.5585858065222121
-0.5127105032948029
-0.31269615623062613
-0.22187539367638062
-0.44005856839648366
-0.5066063574817541
-0.5009080568081381
-0.42804229307871994
-0.25573617792932485
-0.5111634947891642
-0.4898107437645489
-0.46417923214551343
-0.362481792036923
-0.5653877262683439
-0.45527105896588904
-0.5133724552129824
-0.4230835011197244
-0.4044566666666668
-0.2262444000000001
-0.30708764619973733
-0.5170125997531704
-0.5724394315988666
-0.7203303681375034
-0.5795992540931617
-0.3304121403008239
-0.31987304904209785
-0.5160219603587968
-0.668007643274231
-0.7054556700175145
-0.7899929304346923
-0.7295769155668618
-0.7786020523130744
-0.7298517586278165
-0.46031809583333333
-0.3274542145203494
-0.3949046295166008
-0.45128319999999983
-0.35273856255987557
-0.33120426550858445
-0.5492803357718538
-0.8332581777777787
-0.7734205652546429
-0.7947087724736522
-0.5964635359999999
-0.2854503763120721
-0.28236559201842854
-0.4780350188604375
-0.4997111111111113
-0.5804283191568506
-0.2741608527728107
-0.14404651584278486
-0.42215136406249987
-0.6078175545084433
-0.556648266002435
-0.30261271530523676
-0.07198442953351597
-0.2931370017358957
-0.6028724117476861
-0.682741508557772
-0.46868300153568576
-0.334069654543163
-0.5605193226549771
-0.6580360042275951
-0.5237836887786743
-0.1954850879999999
-0.12684505795486942
-0.42919871569854323
-0.414032763862324
-0.5522326032794685
-0.5523828125489078
-0.4526264444444455
-0.19079525902045869
-0.4625930531937707
-0.31249
-0.4512722492161109
-0.4571995238465936
-0.486051108816912
-0.45832420472549534
-0.5291524873408907
-0.3615843253463317
-0.4143268461616712
-0.4394651828897764
-0.3210018395436791
-0.35210901482762486
-0.35369655091435503
-0.4120972229015258
-0.3390867578124999
-0.34066859515373765
-0.42985731579558345
-0.3393279014259145
-0.46336890033144434
-0.32991079999999995
-0.3327997830130192
-0.12957733333333296
-0.26158298317233375
-0.4684041516835558
-0.569400065239117
-0.6032576845344462
-0.4104768145165268
-0.10248302996486867
-0.2916880620756804
-0.5284901988786749
-0.4812726700847912
-0.4790786830336848
-0.21316791878487298
-0.449486073331503
-0.5428288588177886
-0.40702466879649973
-0.3742849650754296
-0.5704258171003603
-0.44848102194571465
-0.5258843883687766
-0.4373375933850128
-0.412014
-0.2317993139078324
-0.2186465933825196
-0.420566011166328
-0.5785824519396106
-0.667536491507073
-0.6726584542117237
-0.32787529916066493
-0.29271520560887515
-0.39315573871527737
-0.6148663756501415
-0.6637287488321468
-0.6918685401934878
-0.6681309165199876
-0.7348066275125729
-0.5676645914445134
-0.3453880295085066
-0.2777980753324257
-0.4276566021905354
-0.40831866666666633
-0.39342407839443516
-0.19414448405913234
-0.36314068127063953
-0.6823276000000003
-0.7313518181373276
-0.6830222297995457
-0.4122789989584614
-0.08220034437728518
-0.2686800566229995
-0.48568950556967755
-0.4039378011985959
-0.44809088040175654
-0.0829287905330325
-0.11624936195138065
-0.44207899999999983
-0.5504476298665893
-0.45097017030976444
-0.19999523648307568
-0.08671676755362644
-0.34614919280843187
-0.5636337636693193
-0.5310060746221749
-0.3690631264087368
-0.42886845789363187
-0.3725166516872552
-0.5217631171922475
-0.5049737606613897
-0.3116596266666669
-0.18886315526295136
-0.4826689164445001
-0.43900284581233673
-0.36481622046339207
-0.48551360732306387
-0.4762493242405454
-0.3633875647861135
-0.4864809237347316
-0.3690555960142265
-0.3432349384874023
-0.4599075966873057
-0.5241935773228822
-0.46059392656991555
-0.2905515140389989
-0.29908751857195015
-0.4196761053992421
-0.2510648240500755
-0.2907434685275128
-0.36295678964389305
-0.3326332578657754
-0.3718815692562049
-0.39079092615231714
-0.17777368533443602
-0.1330043853435758
-0.3847476302096792
-0.5507990005585307
-0.5324160582654952
-0.4825843020037519
-0.193513136641946
-0.20903913164536692
-0.5017938661116256
-0.46377184272685007
-0.43161658648481094
-0.3261769298654757
-0.413408282941443
-0.5790564776207653
-0.35030053756758056
-0.47137940755608226
-0.5634403141725647
-0.48877490451388866
-0.5666250039060079
-0.49517328229923435
-0.4650921957015914
-0.32553966707997445
-0.24197488392256683
-0.2815479588456642
-0.5002781031341889
-0.548853246258192
-0.5715906820865929
-0.43563516470345104
-0.32690285138416475
-0.3268226195101179
-0.45822930571673953
-0.5630037989253983
-0.5273889773859485
-0.5555983294878732
-0.5757545219425512
-0.39718944042196663
-0.27992248999583474
-0.34018972410457327
-0.4613109950402982
-0.34743963132878714
-0.4240764038565032
-0.1852241238803537
-0.19246385413117065
-0.47713853577185233
-0.6008904030270693
-0.5267473213016042
-0.20905159227939754
-0.0443992906294396
-0.31076445437712347
-0.44755009128614337
-0.3978307542880763
-0.31759938814091543
-0.05993035640520753
-0.20692685554670265
-0.456376515715411
-0.4734186224774907
-0.4243299499900092
-0.2220125820571821
-0.21821305337190908
-0.4071669248343462
-0.49441055698303066
-0.3789849301765223
-0.4294416904719564
-0.5618496187228769
-0.36008862005115466
-0.37310096051642744
-0.5081155704199082
-0.39983660341392796
-0.33591475429794165
-0.5464780050452395
-0.28195259410991896
-0.43366906352256485
-0.5283566675346146
-0.46783555989584974
-0.40825789103131266
-0.24868593863486702
-0.4508291522112506
-0.5324376782213689
-0.3755883839424407
-0.2256925261352162
-0.2865868115571884
-0.20860890522024625
-0.2700180886133506
-0.3123469353434792
-0.34726862988220636
-0.19010998645051166
-0.2915344062596868
-0.508131718006736
-0.41574070675504005
-0.48052274278385193
-0.40890043423574757
-0.27708234283358474
-0.44936113962993923
-0.4728974380486286
-0.3437561380450504
-0.5173146103769515
-0.4587220394943406
-0.5643577705302539
-0.35277316284356264
-0.582819493074071
-0.5743352607887414
-0.5322099479166668
-0.5949360782817102
-0.5207537981086067
-0.4518760994007029
-0.46119079999999985
-0.399004880016413
-0.2544586255376731
-0.3989736266132773
-0.4777168328304744
-0.42538949191364644
-0.5470544313563409
-0.40552789908859826
-0.3760766728846818
-0.32130996005795603
-0.4601351159826413
-0.44101644285825836
-0.46659946435252314
-0.3827001557738939
-0.27691090700457655
-0.28525857031250007
-0.393828653839295
-0.4695136419504922
-0.4304607451952886
-0.4129903392368208
-0.23726443756942314
-0.1404840182021078
-0.2678554959840194
-0.45228812016639025
-0.3697844877752199
-0.1285033728
-0.15328872072139574
-0.3629169128013486
-0.4655595112614788
-0.4944362316594339
-0.2690316902665839
-0.1872586394571888
-0.3286579770350729
-0.4902475691089005
-0.43916399734093
-0.45721929105988024
-0.3248699843040558
-0.34957883167648957
-0.4976141017119507
-0.4485190763993822
-0.35139299211198954
-0.5327572163670179
-0.4685364399893957
-0.328191193316939
-0.5553134063394302
-0.5106200037197771
-0.4455792696604452
-0.3407248089013097
-0.40260554890722416
-0.6300081908383279
-0.5308448982396207
-0.2432863623788277
-0.419119045999567
-0.5592068399139624
-0.32258999392533155
-0.19733589411035338
-0.2080843646495903
-0.49212533333333336
-0.43139450731147555
-0.29474932035665824
-0.477926445789769
-0.3996010565925927
-0.420789527001308
-0.5673539772680299
-0.48907812759339836
-0.4482425687866005
-0.4987651384035719
-0.3200387999999998
-0.661350808431494
-0.5520216510326157
-0.5569570747281466
-0.4018667185368879
-0.6691698791072532
-0.5535965428057796
-0.5576633787986175
-0.5397998667745593
-0.5409804115762283
-0.404142
-0.5752806666666671
-0.5351163421993518
-0.37361448857437835
-0.335211041101662
-0.4929642593841705
-0.4104914072173065
-0.617877275797735
-0.4464797443528224
-0.44825768750000056
-0.24072384754160195
-0.37610570786262437
-0.4755305370852169
-0.43121914835460723
-0.2014653230311986
-0.25260055796652225
-0.3104030338541666
-0.418287543996607
-0.5966870880972406
-0.6243577724736527
-0.5013083443707272
-0.30769597796720416
-0.21935471605703694
-0.1857534133333333
-0.3288963046230586
-0.3173086501343253
-0.2201548266666672
-0.30020410181125795
-0.4799174379139421
-0.5517300822739469
-0.5351904806201544
-0.3300475094027694
-0.34352947967341413
-0.49248830988830855
-0.5452305944832466
-0.43796174229593404
-0.5040369415168423
-0.43671462947090384
-0.5196823624033621
-0.6174174818838014
-0.454331048107773
-0.4203011496562939
-0.3675186628177314
-0.6024088349314058
-0.683319540781154
-0.5692967569618945
-0.3717740651091632
-0.6921687181395341
-0.6528398781625125
-0.34543484992767226
-0.5990510052520076
-0.2944360706234884
-0.5824311111111115
-0.6346231994810482
-0.3871013669471281
-0.4733825364860275
-0.5016742583317827
-0.4084384480264514
-0.616506750017221
-0.6772331591355608
-0.45475436880877446
-0.5389893461486958
-0.40927272
-0.6556168030584829
-0.63789128817705
-0.5217553127699882
-0.47191529316111497
-0.6299081197905895
-0.5219247973792568
-0.5411120953787482
-0.4234081096162194
-0.5116315111111114
-0.3760699999999999
-0.6508493808638144
-0.5787793228208683
-0.5138420205561794
-0.2644685769312423
-0.536470839006009
-0.5418163700557005
-0.7264844645963314
-0.47942435139904666
-0.4755464221643528
-0.26192831712884596
-0.24673678183960043
-0.5737457799606754
-0.37869733753519874
-0.16498518928704298
-0.3203930199076952
-0.35790937124416566
-0.5293391676598366
-0.7796658269220985
-0.6687494846511629
-0.6565795951830399
-0.44380047350126905
-0.336452444865781
-0.2663862222222227
-0.32751145674654414
-0.37215123923675725
-0.35345643675139393
-0.4667380315950016
-0.6113730758565284
-0.5724518204265191
-0.5143466666666665
-0.41022916329902154
-0.5245243322703262
-0.6442784261528778
-0.5696474157235142
-0.45867236819806934
-0.5868119867258148
-0.6975326570640944
-0.6905729454698016
-0.47655437065972167
-0.5778805032031402
-0.7987779540258394
-0.7105291996321207
-0.6219966666666653
-0.7742751428547442
-0.5638777061376304
-0.6267878707721978
-0.6767575928215028
-0.49894649956489606
-0.39756898647258937
-0.6182687098205162
-0.5197883013019219
-0.594735261220347
-0.6811348101840378
-0.48026531641190046
-0.5103181538696971
-0.5254624690638564
-0.5337648835875395
-0.595811883117269
-0.47885793099967705
-0.5056110128829655
-0.4563673395093029
-0.4502704103516392
-0.4622209661458336
-0.33568244321821955
-0.4022262925182086
-0.3664127609010126
-0.6984903490390577
-0.5978979414798018
-0.5547990514622937
-0.2587051729796149
-0.4536478342291487
-0.6870109819069431
-0.8050935764967354
-0.5526896673191354
-0.49098235911632376
-0.3445294203469516
-0.1897667300433974
-0.5652407211894627
-0.35998004919499
-0.2773570514293591
-0.40202273992319154
-0.4422525318263715
-0.6666373724726262
-0.778374108914916
-0.584098
-0.6839583314438165
-0.5847488766184727
-0.44002242731599145
-0.36787820974030416
-0.41979223725686493
-0.407113606935213
-0.4720479231246129
-0.5965311800012976
-0.6453986805310664
-0.5481873367226734
-0.496408176167446
-0.6546366155799944
-0.6840256735741884
-0.5719066432291668
-0.6860838448803978
-0.7414173434208294
-0.6721702362058277
-0.7408264800000001
-0.758126166619496
-0.7346384116553006
-0.6125950206654264
-0.6564651455092766
-0.5135851842599947
-0.33783314768509504
-0.5858615946662394
-0.624794928549255
-0.5302780776451206
-0.5867921342155751
-0.4554762329680641
-0.44638351648187874
-0.5291377486670804
-0.41390320629829164
-0.45706376232423546
-0.41075682821202975
-0.46750516243025425
-0.3055886121916788
-0.36434302390250806
-0.3752209895833331
-0.3493257562556411
-0.3139359320242024
-0.3784985554866708
-0.6805931514775779
-0.6059330162379979
-0.5518943454647167
-0.3159663598593881
-0.33085272165323504
-0.6614599643451766
-0.7202887574386204
-0.6060158416036875
-0.5158106464027092
-0.4217782596710519
-0.28130604306674994
-0.4550556942194592
-0.4349696318229383
-0.3909390683340785
-0.46344519863824724
-0.514769389916779
-0.6780159529162227
-0.6682489615623064
-0.6266015516362572
-0.6457638424870692
-0.4989414560048058
-0.4351023296548872
-0.46699308779328413
-0.41154898896801845
-0.5253731822194668
-0.6359493122784126
-0.614932094190755
-0.5319682618342881
-0.6347789933823527
-0.6318562708161252
-0.6259209195938243
-0.634240865468071
-0.6466229595408602
-0.539326271957015
-0.6204972968120228
-0.48867869292149296
-0.34045805499173015
-0.455430363791214
-0.5632017445444496
-0.41797669535526705
-0.5210543205021453
-0.4060747764083026
-0.39526505048163224
-0.4464957600000001
-0.29421163726071164
-0.38189151628548523
-0.3754320718572995
-0.406458663980161
-0.20814923366328322
-0.3530781229289819
-0.3998916688166241
-0.4184727838044146
-0.25446265813552926
-0.3783012016945649
-0.5500491925581404
-0.5487705094984144
-0.5753816177101689
-0.3963364677820607
-0.3314318951987331
-0.5002313790712734
-0.6095555620996082
-0.5770746870220731
-0.4863836785764642
-0.5112731672031198
-0.41780215572028
-0.42327838046814387
-0.5270865953654537
-0.4773890859602829
-0.45254695583808074
-0.5631162195572244
-0.6099002496503737
-0.6189597773219546
-0.5396960876907427
-0.4278662472273884
-0.46471474322785594
-0.3899342301861621
-0.513557143565892
-0.5953578605377087
-0.4901495080644187
-0.5232058264930775
-0.48186803972220504
-0.4038602263565893
-0.489458832485589
-0.5448806908602576
-0.3932938446384178
-0.38573570532988755
-0.4351358859268445
-0.29029613157137996
-0.40623537254322245
-0.46457844163590006
-0.4126368322465302
-0.3807534666666665
-0.20110786111455559
-0.3288793656253055
-0.4429744021012851
-0.4283171422187489
-0.15530458254129212
-0.34185892860800665
-0.49103174048098785
-0.43353020672307085
-0.19545845597238407
-0.3110684764857885
-0.45086799999999994
-0.4435196388329045
-0.5045105941370375
-0.5445160709525504
-0.4398136118108009
-0.40026136705290183
-0.5122640378200758
-0.43536932806084877
-0.500354824687138
-0.5589382836640376
-0.5105574686521236
-0.5815189339569695
-0.4667608294425312
-0.4228294990454918
-0.5552645859375002
-0.5420464879107253
-0.4043597331128337
-0.41298572357944224
-0.3964187591984372
-0.48002096
-0.44578904153750776
-0.3323966666666663
-0.32412623909780547
-0.5339200669472829
-0.5387652463804292
-0.4283515829029358
-0.3599643438727007
-0.2889681318454227
-0.27345405296879305
-0.5116313191191205
-0.5159066236397939
-0.3855463075015497
-0.2929881556106633
-0.2690200728078873
-0.47446723472935354
-0.5128928392192006
-0.27947865468071903
-0.28146633079715494
-0.4996117526192351
-0.34173114548064815
-0.2530413136950906
-0.26127
-0.36716806497612925
-0.36837328356674454
-0.6109953506112187
-0.5847902477094368
-0.4281651451337929
-0.3958607638888881
-0.4084893977695996
-0.6033303488192968
-0.599211500569088
-0.5489865179277273
-0.40644054282948433
-0.4176141155197349
-0.43353839999999977
-0.39076208064976087
-0.47461716057036585
-0.25901595525259286