<?xml version="1.0" encoding="UTF-8"?>
<VTKFile type="UnstructuredGrid" version="0.1" byte_order="LittleEndian">
<UnstructuredGrid>
<Piece NumberOfPoints="1536" NumberOfCells="6750">
<PointData>
<DataArray type="Float64" Name="f" Format="ascii">
-0.34637792423584834
-0.44002
-0.3017922775651688
-0.40440398102796216
-0.45927364932729864
-0.45940740186924184
-0.34812566513566123
-0.5213403125
-0.5493049257354767
-0.4742376331374502
-0.6114718877867329
-0.6403579134218943
-0.5639268482691628
-0.6569564000000001
-0.6490328740860144
-0.5733923798659829
-0.633999460632362
-0.582689571036786
-0.31251959465977747
-0.33479765550733603
-0.220564401704569
-0.2906951088234138
-0.40769725563132875
-0.25701563443129155
-0.36816426823942366
-0.42030950661838123
-0.5080650806423782
-0.5118466319265161
-0.5441479227939653
-0.5843290635211622
-0.555236283648394
-0.5595605578608244
-0.615057005054702
-0.46227072241155204
-0.5894942537714406
-0.5494832843615247
-0.2927271563407162
-0.3696270613763174
-0.27049077233492974
-0.38846713922909554
-0.19652948132571793
-0.34289282696176254
-0.4252456442207388
-0.4245976193428395
-0.2685069245132449
-0.546257061013103
-0.4402073170413013
-0.6823805318040918
-0.4595054116850808
-0.5716028475057942
-0.5040357168777447
-0.6682735321679213
-0.5142194236879879
-0.6418856926066205
-0.40920096774969833
-0.5070710457082567
-0.6226671484094092
-0.4117093820043302
-0.5796944688158712
-0.5730697894490249
-0.3356405656809826
-0.39830889439966954
-0.36822879678080117
-0.37331649578250564
-0.24737545620226045
-0.47691338431343494
-0.5072717341548075
-0.3424161823743257
-0.34972034056985285
-0.6873805738006208
-0.5881759337028675
-0.438974996900186
-0.36890794876773275
-0.5349322239175094
-0.8224684171109738
-0.6018107875435423
-0.7816327646984291
-0.4472669850218735
-0.5594551717762565
-0.6250826836723565
-0.5124512370001197
-0.44208454920435974
-0.5217731486844303
-0.7350716254757358
-0.32322508732918076
-0.5107688098002096
-0.7223971314773402
-0.48003915239417577
-0.6666631699111393
-0.6615535289886745
-0.3932336389269349
-0.4183066666666666
-0.45570040031413345
-0.3506955110655145
-0.5792804210069439
-0.36512181608936034
-0.5239415689357257
-0.31826679063380076
-0.46945746150559664
-0.7381292932424053
-0.5430084442107345
-0.5475426719958704
-0.3891502255149622
-0.6567350980923977
-0.8324137333333335
-0.6745960211780063
-0.45426999999999984
-0.5016371494755633
-0.48851532695173266
-0.7466480861489572
-0.7805353668113248
-0.6768139046709457
-0.463009852311639
-0.48833459020319486
-0.6764463311221705
-0.6564762167524334
-0.3455270210316744
-0.47813775241492723
-0.6189811457792289
-0.8089801692708337
-0.4150589167793462
-0.6021386564907215
-0.8371533550320311
-0.6220422809138021
-0.7881051999999996
-0.769891120066129
-0.4037358941451216
-0.39566999999999997
-0.4865250243660488
-0.4095922677170663
-0.6493431093749998
-0.3688660628802514
-0.5298107606621371
-0.7756997290762556
-0.3440271375451874
-0.4455311076905752
-0.5889557469373086
-0.44753866784003377
-0.4533036014661073
-0.6903500302745056
-0.8175176000000003
-0.5130141781883568
-0.6607925042622204
-0.47480982380362785
-0.5767096051684785
-0.787436469387782
-0.7481451977681339
-0.6952256582903007
-0.482196
-0.6298513355054607
-0.5131641837770271
-0.5643707893442769
-0.7445718190184643
-0.45861652121892743
-0.46326624427545243
-0.583965997081893
-0.7827221824538779
-0.6406622468844938
-0.3626721364137539
-0.5769193401586991
-0.7617187270379637
-0.7744404635416666
-0.5813215441181958
-0.7373829055104326
-0.8272154073155614
-0.7688592478128892
-0.8021947199999998
-0.7771184637321761
-0.34920136706140054
-0.3131901787559409
-0.4138452146314497
-0.4197342901857813
-0.6071911203674996
-0.34658142935868336
-0.5786135665522351
-0.7637752010644805
-0.3628067622410515
-0.35631879538434513
-0.7165753668147837
-0.8215519112213266
-0.4930930660981521
-0.3825543818441679
-0.5062003787327011
-0.5805862778122199
-0.5465154460417457
-0.4929888866062524
-0.6238993183928145
-0.775832151437369
-0.7547359972810808
-0.5174044573955818
-0.6858436661928109
-0.5699618988123513
-0.5825166839233925
-0.641477569415169
-0.7279696811500821
-0.6743296270748934
-0.5432946331886757
-0.7116652332049465
-0.577058693740934
-0.5106968399559944
-0.5584814766045297
-0.3667341916302043
-0.5375774852620919
-0.666307080166952
-0.7682803880846089
-0.6286475930484574
-0.4827683730982848
-0.6445140684576708
-0.7817921947554195
-0.7002055135358543
-0.6828736532445173
-0.7844839326794381
-0.7364136856199245
-0.8057677468938914
-0.7218647565612725
-0.6986795415196349
-0.2840093695576945
-0.2974808204174413
-0.3584722463974231
-0.315267474478198
-0.4050275078819608
-0.48895753396341407
-0.5915615626969827
-0.622064549232978
-0.37395446617177
-0.3113652386856787
-0.7174588671441667
-0.7141083227526357
-0.5236441755199727
-0.38385037509178116
-0.39654318421684126
-0.7430903031354802
-0.7135179337699342
-0.6397633436549005
-0.5340651569455747
-0.4687692140108624
-0.5511201043604047
-0.6033699464765447
-0.596388411966121
-0.5680950067278624
-0.6348350276616282
-0.6534689987518086
-0.683360995169254
-0.5635650809424714
-0.6750815434644637
-0.6110283789627572
-0.6242367974189329
-0.5705409163463527
-0.5849590708318078
-0.6346656108649126
-0.5864415685058897
-0.6713866042377051
-0.5795239233280643
-0.5502679689777056
-0.41892103483629756
-0.41592337353239167
-0.5375442908452164
-0.6240024113326365
-0.6589427031681739
-0.6218568597251103
-0.5348799837290192
-0.6249106461004351
-0.6829318666277134
-0.6405890845606127
-0.6726911213346263
-0.7407258581101849
-0.6409908518098655
-0.7761572733657669
-0.6240320560033069
-0.5975458026987285
-0.28015399943218006
-0.391776
-0.4215113115506232
-0.4023571453754615
-0.44856169531249984
-0.31013364213498107
-0.3656601078735276
-0.38619811043670643
-0.5370960678785691
-0.4755612591444515
-0.595249337862326
-0.5462245599999999
-0.5149071400272919
-0.4471846464174826
-0.3929136488255152
-0.5921392466234235
-0.6182754358338499
-0.5919956086301039
-0.5730192640177788
-0.5081129763185365
-0.5052361458979123
-0.5640076940589661
-0.5904346020519372
-0.6377942550660726
-0.627030638776951
-0.5728920752297809
-0.6058752548047117
-0.6412685881792778
-0.6023606477340527
-0.6111878778230193
-0.6726746121371862
-0.5846704306013636
-0.544499126355798
-0.5837760092657964
-0.6332898483262711
-0.5431521028411731
-0.5999103750016931
-0.5764257671695251
-0.4685865672855662
-0.584501106369716
-0.55868
-0.5473733537138462
-0.48149411435181183
-0.533094120906524
-0.4076826294528412
-0.46237793543717515
-0.47351299216367
-0.5101552223024618
-0.5631009856507311
-0.5528520648521297
-0.5162384049060468
-0.5863598523374728
-0.5840690390371502
-0.5427517317708334
-0.6653802152813261
-0.6694282614764635
-0.5285290818350898
-0.7289550601243359
-0.5233991200000002
-0.5119530427774334
-0.3182473866534398
-0.42343666666666663
-0.4638963455060245
-0.3278083722599457
-0.42745903672796365
-0.4650758376736111
-0.4892714557336338
-0.44761258421161393
-0.40262861743367684
-0.47107547726534066
-0.5380644199214725
-0.49888241704762076
-0.46515021344272084
-0.45047056252510015
-0.49828239999999996
-0.4222280135424797
-0.5747417379623888
-0.45938103168845507
-0.538568622174788
-0.6333021349785635
-0.5940311111111092
-0.4485385389539956
-0.4339061407793709
-0.5479564589089753
-0.6909029407854809
-0.6765920590241167
-0.6173627687538755
-0.42981814039486244
-0.523454870161391
-0.6749029915188474
-0.6954522916666659
-0.6186260852052624
-0.6414705788817788
-0.620402645430432
-0.5639412023866316
-0.5596085428081087
-0.652981188606462
-0.5718549788964662
-0.47941137219178026
-0.5818112346704696
-0.5656867301866982
-0.42400856690046135
-0.5092659223301532
-0.5478240444444448
-0.4335463461321893
-0.5391019677304106
-0.4652199999999995
-0.48023978649099425
-0.38162576304358103
-0.4852978675759458
-0.42745529792656894
-0.48179743214405263
-0.4626478468771827
-0.48705995803005725
-0.5176940382019791
-0.44439290429247463
-0.5487179016048576
-0.6063151948800395
-0.5342737851437532
-0.45653838975694416
-0.7052648020273121
-0.5918836669766673
-0.48100756561272995
-0.6468878876941622
-0.5015386666666668
-0.5166194833643317
-0.3110465222063773
-0.41807520768753864
-0.5025475454517344
-0.2850674738757794
-0.46954801611903285
-0.5636683728615194
-0.32060462636616266
-0.5232127557346561
-0.5723902488835397
-0.4059918904304612
-0.5347859286821706
-0.5591365982665277
-0.4591522946484489
-0.48809
-0.5155640628681257
-0.4437752493438319
-0.32093954350072273
-0.4382984149409062
-0.5179420469750976
-0.5307635059642752
-0.42570220278477505
-0.49212262092419173
-0.49159576511852726
-0.4403040888481724
-0.5172754758421159
-0.4482688454414437
-0.5124714352610856
-0.6979232736628226
-0.7527819999999991
-0.7085840250348631
-0.46660860330177556
-0.35340398917403276
-0.4383840455191131
-0.566114420272002
-0.4873924389513284
-0.30190100201694575
-0.4108987614347186
-0.6700651644223204
-0.7869883743567487
-0.752124666666666
-0.34042234310988656
-0.40816959823093524
-0.6020047290817879
-0.746237592013889
-0.7407278927811184
-0.6615463032551662
-0.4377596111773708
-0.5330252158843631
-0.6494876836123172
-0.6567029348958329
-0.5795570947181736
-0.6091022028765175
-0.590669843149411
-0.5093880787160221
-0.45148571617329303
-0.5729375071295718
-0.5151814666666669
-0.4743056005628104
-0.5738428166656336
-0.5286347285104896
-0.4052563273384966
-0.4335047183321563
-0.50052584
-0.39520806116966334
-0.5413006402929047
-0.35770542880760553
-0.5063454467162957
-0.4393976596358431
-0.5037514420095803
-0.44829357139904974
-0.5477112764903715
-0.575404300277054
-0.5602359606335147
-0.5663272223799146
-0.36979967363975247
-0.6688583671945604
-0.6477464123744575
-0.5941237227308208
-0.44537774796897595
-0.7125140937254614
-0.5925052322979316
-0.5556653893286958
-0.6089126917587669
-0.6280466951022926
-0.6480554798574856
-0.28001317834263234
-0.4413453069424118
-0.5733229069474582
-0.22123334302780598
-0.4783272000220122
-0.5776115908059839
-0.21180623452991684
-0.5410657302130696
-0.5845834746487402
-0.3062430059307731
-0.5679358521665846
-0.5715515104166666
-0.5202600045410506
-0.3869210796762736
-0.41140621409382117
-0.48034312833230014
-0.4496516938230582
-0.5087660443058836
-0.5300853809850146
-0.7563079593984375
-0.5143991857383802
-0.49847402168264304
-0.4842307031183674
-0.525684410415375
-0.5157159299011552
-0.5698864273788332
-0.3960631313002809
-0.46508945675436547
-0.7124484008851278
-0.8223739271199282
-0.8429495999999999
-0.7999621227813606
-0.6155492799708512
-0.3519399514645612
-0.36621307682028026
-0.5788473669880982
-0.42273468054577107
-0.3388344439925604
-0.5167469051448651
-0.7274700380982928
-0.7887126910037819
-0.770552383756974
-0.41136693169147615
-0.4895588994372256
-0.6149863575756851
-0.6879043223958337
-0.6770306681153767
-0.6029327653654972
-0.5069036283792494
-0.4953664993593722
-0.5728764100433973
-0.5473398368135373
-0.4979530997317026
-0.5568456348419096
-0.6171138861334989
-0.49506082180249544
-0.4124377757004922
-0.49633338795033904
-0.4576656799999999
-0.42074211739269257
-0.5415470539799091
-0.586909023727756
-0.49735792361541625
-0.47500011620946775
-0.5079238477646902
-0.3895246140111592
-0.5719762720594869
-0.2975831463112213
-0.6223651655750051
-0.6028296575741353
-0.6187812728755783
-0.5157569551366362
-0.6903824891786964
-0.7130232064228146
-0.682172738193493
-0.6654965764255061
-0.3615666075961413
-0.7586769222563571
-0.6917298719845699
-0.7350266861079163
-0.49160379096355794
-0.6976771092616855
-0.7161447954508717
-0.666743357389722
-0.6836276562104867
-0.800295443397396
-0.8330268301144337
-0.3710908173176271
-0.4170195117071558
-0.5384578964775758
-0.5533547470621593
-0.25925790689206785
-0.3916497780226044
-0.5999304669697593
-0.5996384552606324
-0.21941895722679453
-0.47879246664074077
-0.64419732868482
-0.6383716367017981
-0.3277611182676742
-0.5489229108492223
-0.6094057656245696
-0.5343849286001754
-0.4019339123744254
-0.4039036329820211
-0.6624306658400502
-0.5192847047726806
-0.5101783571993964
-0.5130650704207776
-0.5541121947923128
-0.790412515671283
-0.671851098506897
-0.5426167533390274
-0.4787778006787888
-0.5308430840584252
-0.598071530601551
-0.6069334338949817
-0.5048013689638852
-0.4277346633028021
-0.6073360052869057
-0.7813894116548696
-0.7979338671213058
-0.7977267968588547
-0.744400459092455
-0.7341682288087886
-0.49999153766482296
-0.40169397263897544
-0.5713673818379487
-0.46842199042651406
-0.4874942913990501
-0.6272399183012056
-0.6880212384892501
-0.6945931785406638
-0.6543424374870848
-0.5409139282900729
-0.5308330033615755
-0.5943669495698889
-0.5906279217552585
-0.5462664074674334
-0.5102114821244058
-0.5017699503344325
-0.4802908165819388
-0.5171943807135962
-0.46324051159622864
-0.45887046354703415
-0.57358713267204
-0.6623975861991501
-0.5637209291952435
-0.48365499098901293
-0.48087534675285676
-0.47678829296962216
-0.4183507439843179
-0.5228353480090416
-0.6843053815179032
-0.6210804331599923
-0.6039860345404731
-0.5773540329820207
-0.4753504831180893
-0.5936333725797707
-0.331860817317628
-0.7462636698387772
-0.7180385346076078
-0.734885288795205
-0.6482099804596623
-0.7869498907038502
-0.7529655458979129
-0.7813085862602683
-0.7057906540190167
-0.4055566403746553
-0.7475749887134481
-0.734318600960355
-0.8030338720624391
-0.5276338446492692
-0.6958061892926387
-0.8256704490726761
-0.6819600875878421
-0.7974339161919527
-0.8244246576152091
-0.8904566929282859
-0.4877630757043461
-0.4558991503985291
-0.509002433375663
-0.5809312109176547
-0.6073491293023253
-0.3307202788209795
-0.40569222299844815
-0.6009525950426243
-0.6546376426305544
-0.6652072000000001
-0.2725505645722842
-0.5299399722284216
-0.6687437496867434
-0.6713494682006312
-0.3850267794089765
-0.6212549493414202
-0.6304304088740783
-0.5822987809883865
-0.46294759232228694
-0.4290384252944825
-0.6735840000000007
-0.6125687598384301
-0.5647640024629966
-0.5348704700643444
-0.5779970982478364
-0.6143038137138336
-0.688574243645382
-0.7349417210407753
-0.6445521232281913
-0.5353173014004257
-0.5691792644204766
-0.6352997459809302
-0.6261244283734857
-0.526546274197491
-0.5585620911487971
-0.7518233029513887
-0.7081909752101878
-0.7317595362483279
-0.6699973391196538
-0.6620448761762764
-0.7409558042932961
-0.6692965327547005
-0.5188989953296143
-0.5490733534349939
-0.5402100394915068
-0.59431088
-0.6850755576131085
-0.6301554065427729
-0.561435592264033
-0.5028146666666666
-0.5838442583178342
-0.5835063520066123
-0.5948354911535693
-0.4993630960447237
-0.45122149077231494
-0.5247808755252465
-0.5324101048503277
-0.5573433391626588
-0.4912611558562017
-0.466825021701389
-0.5396332519366992
-0.6472613722772207
-0.6851761112878069
-0.6629506547628153
-0.6018948113158641
-0.5306471316387689
-0.546385095416408
-0.5460676819435978
-0.5309137993065904
-0.7115228373065965
-0.6973619319451783
-0.6824693021498066
-0.6435395200000008
-0.6276865275335093
-0.5822978726093345
-0.40797511421188604
-0.7469233642510104
-0.7213541719015842
-0.7267720492388228
-0.7387879983467661
-0.730081837781225
-0.6865132164625947
-0.75343463708043
-0.6463928985195886
-0.4433796798360375
-0.6631467882380286
-0.7125251984828279
-0.7167100721038175
-0.5114717268706935
-0.6839769701084172
-0.7755973565152628
-0.6065688455994661
-0.8110892727288999
-0.7129813688475456
-0.787593147736015
-0.5275144444444441
-0.5185973670914202
-0.579695907645453
-0.6330373482958147
-0.6407213559492994
-0.6375803223806572
-0.39702182406833414
-0.46641097072785537
-0.7265087997189231
-0.6910243291023401
-0.6664577539091077
-0.32935071915685027
-0.603725803204105
-0.8041288085311539
-0.6548673338354917
-0.4116862926224432
-0.7076682411198374
-0.7025925778908996
-0.6419577667197867
-0.4973464950904391
-0.4653799999999998
-0.5576784000000001
-0.6559255931000751
-0.6437494974345573
-0.6465232078033533
-0.6351247206937445
-0.6515984087218383
-0.6289875613023085
-0.6564017384586767
-0.7418500578703697
-0.621494321103162
-0.643428807960007
-0.6634431902454089
-0.6109146287550209
-0.545995736152936
-0.6981544730316179
-0.7656039291666663
-0.6250937971552056
-0.6590128406584996
-0.5196684000000001
-0.558793105959443
-0.6756519646438499
-0.7455120962182273
-0.615844133333333
-0.4775579731207682
-0.570441442446786
-0.6570614240000001
-0.6996681391260983
-0.5405121494017907
-0.4609966174964348
-0.5089755555555558
-0.6084252850588964
-0.6940891740537135
-0.5798570315074728
-0.46751768020833323
-0.520745546462205
-0.6114825776718323
-0.6800215462084108
-0.6540546452485857
-0.4989894569125853
-0.5520838064236119
-0.6393450250992402
-0.6634130660302662
-0.6406518961030827
-0.6661704281422908
-0.6491202767615044
-0.5657739777502241
-0.5965414239999999
-0.7238078572177011
-0.4800550262191534
-0.6310940685264366
-0.6552853434761183
-0.6384795476734787
-0.6038595555555554
-0.7248647084934906
-0.4872867045815776
-0.44789000000000007
-0.6248125392609419
-0.624544041340881
-0.6000528459892736
-0.6551330577943099
-0.5800699545624487
-0.5757349921698663
-0.6248442772019144
-0.5076543366681624
-0.460120434000868
-0.5739879987693984
-0.6289319269046559
-0.5579230024684593
-0.5092150781250001
-0.6600760148364299
-0.637240705908379
-0.5894021078735276
-0.7287915179756624
-0.6530768
-0.6702105641661501
-0.46185466666666647
-0.5709978179619046
-0.6558732005264271
-0.8071816452034493
-0.666791751196993
-0.6220929421795606
-0.3892617772267002
-0.5248865862847675
-0.8230972872572955
-0.8451540396357324
-0.6244654831990083
-0.35228719652820834
-0.6152840742051974
-0.9260262036474695
-0.7020336472963201
-0.4406005600330652
-0.7080885293864085
-0.8033332440172513
-0.6702400946535229
-0.5276115119379842
-0.5010840000000001
-0.4768814841909484
-0.5988924847583023
-0.7049150403827906
-0.7099842916793935
-0.7737974616832761
-0.6791086544055379
-0.6302149666925342
-0.5470884821669432
-0.7420951189236112
-0.6814353848294078
-0.6225468518146432
-0.7134861120432329
-0.4859614356687683
-0.5496782125508032
-0.744013171729696
-0.6650631503019624
-0.5485113830784331
-0.5627774800578634
-0.5077966666666668
-0.46380094208936024
-0.5639242690747518
-0.723767844034001
-0.6513623466666663
-0.4306290755392465
-0.5759415647861125
-0.726983757702005
-0.6626832898193148
-0.4654631735860863
-0.5089123294273262
-0.5973018957084795
-0.7052810063226218
-0.7789271277042222
-0.5437780809212248
-0.5188341987847221
-0.6093549531162341
-0.5808007623390081
-0.8289312876730649
-0.6767220050258321
-0.5015506633601986
-0.5754279792289144
-0.59444602363584
-0.5513976609501067
-0.5053701739015427
-0.541761989959141
-0.5679727258873389
-0.5117373770378292
-0.5361232533333328
-0.8025816764738406
-0.38627462045590744
-0.4574382556784939
-0.5279259479793196
-0.5230898667530836
-0.47719966268512887
-0.6110561570572424
-0.35186443183555666
-0.44686474167736395
-0.5176571568663514
-0.47991952145523514
-0.48403066473917605
-0.4846560054605806
-0.5124360113947338
-0.49331700863709443
-0.3787348185799404
-0.5529086159299992
-0.5627418023863219
-0.47141524674780855
-0.6470550957101724
-0.5648513874883746
-0.6256994669802316
-0.33211352104429176
-0.5644690400572182
-0.6739267136199696
-0.9021334256426531
-0.7835840845891728
-0.6088415927361986
-0.2340930124749305
-0.5515936279443671
-0.7671488656815444
-0.9815017025132596
-0.6454866991940483
-0.26059715782319587
-0.6128745916011732
-0.8783304918200906
-0.8172914269406705
-0.44666506511168286
-0.6741748234895687
-0.840501202256945
-0.6498220213280427
-0.5773377906744991
-0.5630579138251708
-0.489728291589171
-0.48866016502372683
-0.7106386658664197
-0.6554499824545664
-0.8069203672926727
-0.7458366144692351
-0.6282314779913205
-0.4811191559789232
-0.6624205475983795
-0.6854901548346534
-0.4902294005373021
-0.6634958057546129
-0.3335027206130397
-0.5477319275387486
-0.7121190825786864
-0.5456285816176732
-0.4777683355119861
-0.538406367362403
-0.571550141764827
-0.4861649603452259
-0.45268219104325996
-0.6646621976985027
-0.6737246941103533
-0.43999300403353886
-0.6132901815580947
-0.7775845782930361
-0.5698333788453808
-0.4808215527695799
-0.5677929880963221
-0.5443350754288075
-0.7972092644141991
-0.7347147435089895
-0.5092795077740054
-0.5220816362002308
-0.5285895884764517
-0.40685702170330895
-0.8357329903834662
-0.5793600494454769
-0.45267084435692334
-0.4734120741374876
-0.437375644004609
-0.4221079159881524
-0.3779816687332093
-0.3889941133382984
-0.4388197412939354
-0.42552432362141573
-0.4260399804753055
-0.6511758396086569
-0.2808275025021389
-0.4080176862240978
-0.4394699939215474
-0.4213644216160366
-0.4241142357524191
-0.2952788584046936
-0.4902284945795663
-0.45276663214108887
-0.44118892530876747
-0.4976866135203401
-0.5627929975858551
-0.4226029401585354
-0.6221931701455732
-0.5448144612523244
-0.6078318458902383
-0.2417513115657495
-0.4677088607190782
-0.6606153042225279
-0.7687797135869671
-0.8810994143667196
-0.6372519786230061
-0.058777784460924194
-0.4940001457632294
-0.6738516343952354
-0.9104754602018591
-0.741281193883034
-0.13748265455477968
-0.6092185845809824
-0.7513722177880061
-0.8819157439553625
-0.39988133930136854
-0.6863318757642243
-0.7746232604166668
-0.6504599951384549
-0.5709945560550499
-0.5967394554660055
-0.5729012000000001
-0.3830677824586867
-0.6716209561151435
-0.5776807305913784
-0.6196972405317923
-0.7839080768166667
-0.6256202689949708
-0.46357151292702575
-0.5556069815170906
-0.6799631399692667
-0.3958170099938005
-0.478372592735731
-0.2912534722713661
-0.5824078978284569
-0.6655218213679283
-0.44715504374999976
-0.4794158012827355
-0.5500718288695542
-0.5214474228146312
-0.5333119529603674
-0.42576314968370466
-0.5508720166150028
-0.7140294097678583
-0.49251363799782205
-0.6773138716790167
-0.6823870720000005
-0.4893433370653029
-0.5070528692142227
-0.4708396385267461
-0.3818382093407719
-0.7307574911345319
-0.5954952016256795
-0.4908709592485642
-0.4163868696730019
-0.3865263290240575
-0.31481154455642224
-0.6732029385243904
-0.4820715595487624
-0.40232828967713913
-0.3776520222716613
-0.34523718691569355
-0.3822383384996901
-0.2980601745995371
-0.39841441298677077
-0.40015319980281805
-0.4357779381773097
-0.4464288546553548
-0.3499614027546368
-0.4961908646087299
-0.4647240090376799
-0.43794715640819776
-0.5272411726329278
-0.5733845937434653
-0.51414680508595
-0.61264990048456
-0.6618833528828268
-0.6851830823278315
-0.3129026666666652
-0.320012952131096
-0.6449075336623903
-0.5834474018463337
-0.799671437257537
-0.710375204063082
-0.09013089076255498
-0.3943525414769031
-0.6613556281291332
-0.7265620994962436
-0.8142182666666665
-0.15316019156850594
-0.5862523029895551
-0.7173283247160747
-0.8184174885306882
-0.36010698346765974
-0.6917622576211735
-0.7157906647540385
-0.6552125025444845
-0.48878347183462506
-0.542888
-0.6502373333333334
-0.3444035197470389
-0.585871994517582
-0.594448515843275
-0.41568813145691297
-0.6992317920677866
-0.5730796142701372
-0.48820199904933165
-0.4410466631944445
-0.6805692729475434
-0.46077078768522567
-0.334684363250671
-0.3796777285569903
-0.6656840740673409
-0.5497574936970454
-0.4165684921875001
-0.5061928064334195
-0.4753859958461594
-0.40429877702004485
-0.4511752835688007
-0.47054302117708063
-0.46004386774126854
-0.6241556799999995
-0.5851977652499497
-0.6065976519942133
-0.5279293599999998
-0.5007236427143339
-0.443113433752212
-0.3583354054558772
-0.3223221925925923
-0.57148766976648
-0.523744494249131
-0.4751526173747285
-0.3612292549901086
-0.3702231404505946
-0.3737450547633809
-0.5047242838770823
-0.4996989988016618
-0.426136443519134
-0.4299813070507637
-0.36070199233061456
-0.4543351959582951
-0.5149173814544069
-0.5283142415953713
-0.45145468330767563
-0.6435233158567629
-0.5924337975124879
-0.5607630210902663
-0.7702218613763173
-0.6144812366526703
-0.7543466422115107
-0.49475777777777746
-0.2332913313847437
-0.6238844002396564
-0.5680600074072154
-0.615113033021188
-0.7671569931804091
-0.32498416959427073
-0.32522984534985794
-0.7073385764879156
-0.6539386646729493
-0.76857256
-0.3173767730936152
-0.5213835467297657
-0.7491193782276943
-0.727594877460297
-0.3811629468898538
-0.5961172390479917
-0.6852114027627095
-0.5681651226982453
-0.40044118725236816
-0.4256299999999995
-0.6045649258111184
-0.39786116339788197
-0.4462010347033865
-0.6810934127806028
-0.4203336580282115
-0.549257812924253
-0.4619671702368657
-0.4924865842602379
-0.3996675998263886
-0.586055765836885
-0.6291893079543307
-0.34727737361936567
-0.5205639817681323
-0.6398812430171521
-0.4558361386650133
-0.4498063167326449
-0.46568563070580754
-0.3622122986342276
-0.366286906873385
-0.33389434533076323
-0.4799636218810998
-0.49007192571861663
-0.4816605777777773
-0.5841533655173333
-0.46576264241923165
-0.5031591007894195
-0.5316459742605949
-0.3820979870670734
-0.39161264312848415
-0.3931666666666666
-0.4858694287707071
-0.5397039229186119
-0.4790993490655988
-0.47652052925468286
-0.4444051441502878
-0.4871455881304103
-0.5650929774811212
-0.5683854787994177
-0.5572468793402773
-0.6970816780326512
-0.6392288866067178
-0.5651318308328179
-0.7776930666666667
-0.6367013459896735
-0.7369182434387272
-0.5594901529241575
-0.2890795542688647
-0.5354683939266246
-0.698714627170764
-0.5231756646781031
-0.7235835164290143
-0.4829537208696593
-0.3442648266705113
-0.6676913950476172
-0.7058059071990379
-0.6672218496383547
-0.43105031777033204
-0.4635398883380633
-0.6712222856939062
-0.6645608876739254
-0.3983932119264067
-0.4582647886268381
-0.5755808385416668
-0.4225434625002577
-0.3444562947246564
-0.31497326513742563
-0.4907531233725975
-0.42854423608793885
-0.37367780726906386
-0.6690989567107996
-0.5934401378647572
-0.4464655568130809
-0.3610524242169455
-0.4644446862875598
-0.4167120275008036
-0.4835179851977629
-0.7070700098450096
-0.4446197602892464
-0.6008244500499469
-0.5393444023971886
-0.47498432387669015
-0.46969771600375837
-0.37261064148933803
-0.31576014250920975
-0.3965079999999999
-0.3227946854821597
-0.4206031591224757
-0.5299208510945822
-0.47412486064613885
-0.5098383172124631
-0.43529109691649515
-0.5367605368877868
-0.5033090596983042
-0.4392959522560302
-0.4815584075888149
-0.49580714510358165
-0.5572629403737183
-0.5731213572799021
-0.6309002760416665
-0.5618425128135052
-0.6645511959458547
-0.7432612455052697
-0.7778713599999999
-0.659435494310577
-0.7145232089274643
-0.4722866336019837
-0.3680853508091799
-0.4497865328499558
-0.750178807629348
-0.569768230993377
-0.6172674440883615
-0.43576716543692656
-0.3912676722076512
-0.5565400439158257
-0.6915762574140666
-0.5910479647034517
-0.3972639264977021
-0.4247422652806438
-0.5101932298315025
-0.5587610235585866
-0.35884174906701277
-0.36023178694145025
-0.436233854166666
-0.318714764228289
-0.2995947229737071
-0.2517409051456912
-0.42501380016532314
-0.3939522986037949
-0.38936034721161916
-0.5818879762227803
-0.7303263582641043
-0.41740945613673386
-0.31401703499270806
-0.4261626063854027
-0.3938623633902274
-0.4763505331190439
-0.6725603151890881
-0.5506832378178075
-0.6259370390395919
-0.5190790874145498
-0.4663031913715882
-0.42562952070202137
-0.3026441501350243
-0.3191046321554036
-0.39031294380573395
-0.37188374632576854
-0.47493229771147955
-0.49195225418474875
-0.5092728816118263
-0.46393244332541944
-0.5174926032403385
-0.4996892291147608
-0.56685740364072
-0.5405146506911261
-0.6232403063093028
-0.7241829919771251
-0.6734196679094763
-0.7953555022112005
-0.7419578596665066
-0.39649229351794396
-0.36022958919414266
-0.4394417844383471
-0.6713337938078539
-0.6305321475059439
-0.5147285548524874
-0.35654943921808563
-0.3776642945095999
-0.4787741506842078
-0.587622023212134
-0.5233494400000002
-0.3647879320835811
-0.3661713527670341
-0.3966940590821905
-0.4717083756974579
-0.35448065119294264
-0.30274876273690315
-0.37322584088105776
-0.2927173635160289
-0.3080089610352582
-0.28205073362264965
-0.41969848661498693
-0.3724922699589434
-0.36408688024570607
-0.5475295904981489
-0.7438112015292416
-0.46165073026978837
-0.3036398016119029
-0.3950469848373331
-0.350986596565664
-0.43131045906901394
-0.6466000514769251
-0.6478972967966968
-0.6720566952757744
-0.492874148024619
-0.3932353517877851
-0.36931476948293523
-0.32392949856563685
-0.43372539955041994
-0.4183639676194233
-0.44774485240752143
-0.51779174349571
-0.47110255138886026
-0.528647176921964
-0.5851678825323602
-0.628773776065975
-0.7152159516015714
-0.7400811367643838
-0.42065786253229925
-0.3535355950697705
-0.4118871419936034
-0.5969740497823195
-0.6384418286993975
-0.46049358834469933
-0.3951004031631449
-0.3805961728723324
-0.4175071466325146
-0.5194814359777359
-0.5061189333333332
-0.4369006485871412
-0.3479260054073745
-0.3596140692283764
-0.4934967512552673
-0.4446807615953062
-0.30379547303641546
-0.400739415442886
-0.3360572133126248
-0.4122256615872173
-0.39108942118862994
-0.41559999999999997
-0.4101566919802331
-0.3417512489775882
-0.4923754865758851
-0.7170645233407223
-0.5591024890179019
-0.40799438340876676
-0.3645315829381098
-0.36887452117279573
-0.59434844054722
-0.7308142494958979
-0.6714955417605797
-0.42704762977769656
-0.3746731055394557
-0.4071707135416665
-0.4534284333539987
-0.45141182318690737
-0.4565603226482616
-0.5263263439639055
-0.5651285599999999
-0.6633953949163051
-0.4526066666666666
-0.42931932646171816
-0.398112814701106
-0.5364050982130434
-0.6494426233000627
-0.5006933292002483
-0.4483869249845008
-0.4669972613157984
-0.39231708113479935
-0.5160867208636959
-0.6028551835503196
-0.49860776813391194
-0.4159938987246552
-0.3773589013866417
-0.5845205128414551
-0.5318348057449888
-0.37750776079243153
-0.45569293417308193
-0.4110470285263048
-0.5259005870801036
-0.48276
-0.46198539897079804
-0.41082393948386914
-0.43821986410612185
-0.6729596244192316
-0.6655237358433725
-0.43501408420138904
-0.40395129345403724
-0.507254047413971
-0.7503039386585718
-0.5582164238968056
-0.4349436118728607
-0.4265958968795207
-0.4971486666666666
-0.45169863619349476
-0.584508679479231
-0.5061813533097242
-0.46321793304380726
-0.4917056643509472
-0.6825008297689412
-0.6361160392896771
-0.5603687436568549