<?xml version="1.0" encoding="UTF-8"?>
<VTKFile type="UnstructuredGrid" version="0.1" byte_order="LittleEndian">
<UnstructuredGrid>
<Piece NumberOfPoints="1536" NumberOfCells="6750">
<PointData>
<DataArray type="Float64" Name="f" Format="ascii">
-0.18187728480790283
-0.25753
-0.12148004934470265
-0.22788743918821194
-0.21519480066960134
-0.22361078313501256
-0.27300568958050236
-0.3064412890625
-0.3320944892467996
-0.5071416629644044
-0.47341916924984506
-0.4876093074530408
-0.6911737312749288
-0.6415668
-0.627159587525574
-0.7428117641090414
-0.7369057532548048
-0.7353564569746612
-0.22309938064377374
-0.20669992250464903
-0.13944488080037276
-0.18244972584734598
-0.2827600051663564
-0.28077811465921393
-0.304429211406841
-0.4779010333088118
-0.24058188478762585
-0.5047588219057104
-0.6060926402562518
-0.2747121587486873
-0.6586603702398629
-0.630329660601435
-0.3303595746810482
-0.7278661244980286
-0.38941196441413645
-0.500075764312026
-0.28450115802295833
-0.35360977991320525
-0.2540453205462146
-0.3186386907725474
-0.24753339803077531
-0.32534407858432146
-0.2737916945113333
-0.31776153130812146
-0.35486123090225075
-0.4810081244885691
-0.5131577485213108
-0.5770558791072534
-0.2784000483607612
-0.23411983866303135
-0.6134379752983458
-0.563849082677978
-0.3511055219386019
-0.20032441832474432
-0.6560890040034355
-0.4311301702837358
-0.18241768235957914
-0.526979799082884
-0.24094463211407305
-0.4274591292155452
-0.35317553729987855
-0.45037025831783434
-0.3413907307343074
-0.4019883327007503
-0.3252495621226866
-0.34106051495122097
-0.3462891684083145
-0.4226184347785989
-0.42523519949462235
-0.49003436953280605
-0.31122191640973446
-0.32550977474684856
-0.429578640444717
-0.5800388379896796
-0.6153825419301507
-0.657771006385746
-0.5712213252201352
-0.4569733139990077
-0.2597985424875295
-0.27824657609600445
-0.6531880189004688
-0.48148159565862025
-0.26416629683809517
-0.24928871475576117
-0.5415320472404198
-0.32987995199938686
-0.24558434434737894
-0.4845596517947944
-0.3494939636288499
-0.5476842806208653
-0.3700587323505555
-0.41744333333333383
-0.36509930229193804
-0.33792301682384535
-0.31286035590277805
-0.4326156588120104
-0.43450372313350333
-0.5183843760879577
-0.4192651043012223
-0.3869145587931399
-0.33425923365668625
-0.5073602599302446
-0.5847623761309308
-0.611580733072302
-0.47543746666666803
-0.34227071858707503
-0.37009666666666613
-0.48916167778728753
-0.6261078503764694
-0.7320860534720626
-0.42467813804505194
-0.6732025724687233
-0.6135134867581638
-0.4677474295012995
-0.33893407511871937
-0.4100098117262893
-0.5980864686641925
-0.46135855105254625
-0.3789614972317334
-0.4311994618055544
-0.5224039218348081
-0.4551047747920454
-0.467382661706963
-0.5685293317363032
-0.5449195999999993
-0.6021599710684027
-0.37017841892794895
-0.29314799999999996
-0.3001912199144398
-0.3565889925776204
-0.24916045572916665
-0.39211470091652517
-0.3898358493945235
-0.25495613267203965
-0.47186807577071965
-0.524796525938698
-0.40948643729003814
-0.6392131188366931
-0.5717805909478885
-0.5231813029154592
-0.27507744
-0.3489078520401483
-0.4796498148386538
-0.6611471729343227
-0.6816031872896088
-0.6105693181942818
-0.22851665096094237
-0.4170316150299798
-0.5062420000000002
-0.5228200082251674
-0.6269908404042771
-0.7090325411518008
-0.5164864267050475
-0.613860808653943
-0.565973918163142
-0.5762655636279118
-0.4899369912386609
-0.5776888073656147
-0.5358836597725107
-0.5931181942240328
-0.575387739454252
-0.6157342890625
-0.6009930568196397
-0.6037499170934342
-0.620177091134532
-0.5480269209832574
-0.5898291999999998
-0.5238812895226287
-0.3221853762787529
-0.1666939853275466
-0.19966004099490697
-0.3531066956921427
-0.21304976650489507
-0.3847973865123642
-0.3605731365668446
-0.2686351559666395
-0.4155006873637744
-0.5369897555509348
-0.3912170394823172
-0.3191934184748923
-0.47152906351129653
-0.6071069826460905
-0.5174239227374395
-0.3896755500447746
-0.5500094239310424
-0.6309289280633235
-0.5679088552592068
-0.37579358299708615
-0.30092044237850063
-0.4671419057184781
-0.43827832104623005
-0.5747783110853247
-0.6310560095301766
-0.5992394220293469
-0.27563520445722833
-0.5583428505338587
-0.6015073744575328
-0.5274497696796038
-0.6084209354372944
-0.600394538695967
-0.46811568508879225
-0.510519221538738
-0.616903208174643
-0.6286036130838076
-0.643093315102714
-0.633443076020967
-0.6007184259611016
-0.6345059146517879
-0.6896064148300044
-0.6266574098201673
-0.5523455278654216
-0.62948337844297
-0.5509736056019313
-0.4742366933430174
-0.44181999723083193
-0.3912813228845445
-0.1963862705750928
-0.14710358441826793
-0.16192015426236886
-0.4181001690431901
-0.2804483519426499
-0.21585283710746447
-0.32881049099355425
-0.35709598002775506
-0.4186375984430317
-0.4948885999173384
-0.3479003788639652
-0.49398839971068315
-0.41174876472330957
-0.4900516361472053
-0.5943187553143862
-0.3028668766510698
-0.5161308538113866
-0.4107754865162257
-0.4806289315759115
-0.548567300979972
-0.43155807914858446
-0.48850870097127513
-0.3895752533027304
-0.506316543063059
-0.5028789844057394
-0.3609982172514983
-0.23720327841919694
-0.6013159744732508
-0.5373841425659479
-0.4179484168090107
-0.5156680538859296
-0.5151031195288293
-0.24582705116595674
-0.6593362087981537
-0.6253784459599091
-0.6035870371778566
-0.5076383786883726
-0.5556357271852937
-0.42020203523705185
-0.5470200114214884
-0.575859150692292
-0.6387413854620974
-0.6615257316824201
-0.636535172175331
-0.5906691442572347
-0.5798782605744995
-0.6062258296902097
-0.5605431868577037
-0.455524359012272
-0.5202976020238169
-0.42731410936334774
-0.45803009519594734
-0.32493244575325486
-0.3512755948196525
-0.13866975700566117
-0.2894959999999999
-0.22969618910037815
-0.22627928281518742
-0.2519368723958334
-0.3950498190398945
-0.53227433849969
-0.42157524756365494
-0.3114554264150542
-0.43309038251704907
-0.38833279027448525
-0.5968928800000001
-0.41665819639549545
-0.4558789115250927
-0.5938632610043397
-0.4002639181052137
-0.5995486918784874
-0.3664133069383466
-0.394313747401484
-0.48686052183557277
-0.5069675656127305
-0.3745929752707852
-0.2590862964789172
-0.36465773828998665
-0.3937577675643567
-0.387045505771767
-0.4869716156230626
-0.5944413835463705
-0.4608040983203196
-0.31807921256382615
-0.3921722300730772
-0.3353959226038439
-0.17463163407352192
-0.687016774472804
-0.6406471409404516
-0.4529192460065677
-0.3663044579066525
-0.45865165224219934
-0.26801177230645756
-0.7123802196441263
-0.614344
-0.6375588962022166
-0.46634635164978117
-0.4910576286836121
-0.46934504197422017
-0.5886941832016771
-0.48202014204587745
-0.5803170482158696
-0.5915929202185987
-0.6361201178002355
-0.49582363786216216
-0.5149434710941331
-0.4391760528935793
-0.5267046276041666
-0.4813695651492121
-0.4012832669942004
-0.408992617482951
-0.4946521008896389
-0.4003337599999999
-0.503927799132052
-0.2627431081075499
-0.49677666666666753
-0.3556610145286964
-0.3490343033934034
-0.2671701346981817
-0.30351641927083345
-0.3205189873164544
-0.45589024075222156
-0.4144359665657226
-0.5979560426233075
-0.6374158950196325
-0.5379589482541801
-0.45828051354195826
-0.4574023485404945
-0.5672126666666664
-0.5382209005526276
-0.49964940070262387
-0.45766529311241005
-0.4729587050387631
-0.4824529202908134
-0.5805555555555556
-0.5169520303950772
-0.38269417643858916
-0.3825921713208109
-0.3674302645169239
-0.4166648533697066
-0.49804312213267204
-0.30471117627028704
-0.27666625945574
-0.3339790962429791
-0.2709619618055559
-0.4338421432326634
-0.5392942359986607
-0.628885106544283
-0.5645208272482054
-0.351702873513596
-0.26839121719363573
-0.3482424473486257
-0.21048586377829095
-0.7144519410998821
-0.6527157776890289
-0.527085316253937
-0.3490511342786389
-0.3981352000000005
-0.34614656006330075
-0.7096147885138607
-0.5837966666666664
-0.5500280736394375
-0.47494491938022376
-0.4478007697788798
-0.5261447654474068
-0.5707981993266892
-0.4697607259861912
-0.42096323877595526
-0.5172905530694151
-0.6136225550251099
-0.5143969021159365
-0.41622973726866896
-0.3568898453643616
-0.515602065972222
-0.5313518223764664
-0.4049626734188932
-0.4499434655920646
-0.5761677303579368
-0.5185521333333335
-0.6371445753254806
-0.4388586603839881
-0.6063373052283525
-0.4315544644091931
-0.5464285492985307
-0.5850760198388096
-0.41916773241907285
-0.5955075886635406
-0.4604430274850168
-0.34007680799696743
-0.5176355144006185
-0.34247318139534927
-0.2873385275124351
-0.36386251844040246
-0.28749
-0.2542515927831856
-0.2558740746481495
-0.4047535955775974
-0.3717465473900694
-0.3161693320761865
-0.6040400047275528
-0.4440644902670617
-0.3610845761602643
-0.407954122263865
-0.4736962879795659
-0.49164411812357955
-0.49312411096984254
-0.6327718466907745
-0.7088208227107532
-0.6611940000000002
-0.6118750500822548
-0.6171031412707539
-0.5727201898230265
-0.5375585841210793
-0.42238216859887784
-0.491450780404918
-0.5831780331886751
-0.5407332891076583
-0.5322378424894206
-0.48269052187571054
-0.5219619999999999
-0.514497869823314
-0.4234321086471797
-0.44370872999302335
-0.32630667795138907
-0.43204190943848547
-0.48774764578702623
-0.3235942593039667
-0.3480256717428886
-0.28815518764207493
-0.30193129687500003
-0.5319768635835783
-0.5082123615964116
-0.6335279450299659
-0.5299898706771523
-0.4648712134274629
-0.28851070262450934
-0.3423690399999997
-0.2885454613447799
-0.676769522667934
-0.6050354030395398
-0.45302086585329354
-0.42535500757005296
-0.4286196
-0.4062486137631736
-0.6514297862223585
-0.5642044368671214
-0.42613762628863
-0.3920460727477695
-0.4889872170679688
-0.5942196305021701
-0.5907909901448588
-0.4430721711085935
-0.28525351686295
-0.4742415338714066
-0.5925743751488745
-0.5669893576157229
-0.3372551941062205
-0.37259401917366936
-0.4966206581669337
-0.4981579142074748
-0.4614884888199993
-0.443310877619548
-0.5995692243195098
-0.49306147559413144
-0.5554710804584634
-0.48065008438382534
-0.46042076149917993
-0.2983004801523106
-0.519907084323311
-0.4667610792922214
-0.26943086552484796
-0.5792579497673831
-0.37934924573090895
-0.28198722765665357
-0.5387379590438702
-0.30854997176022203
-0.31120796875
-0.2587874990637228
-0.387976330576342
-0.2933227774333539
-0.6310576763794173
-0.4893962104618356
-0.3875452537327047
-0.3440918147229826
-0.7219625303290442
-0.6802869562940637
-0.4976480310907032
-0.3989597152487096
-0.4327484367017978
-0.4010860203105289
-0.43358522940353283
-0.5615157361832993
-0.6750783624949951
-0.7506948266897503
-0.7331865836605364
-0.5599676
-0.6333670867962197
-0.713891136960843
-0.6492024511372843
-0.589245139284976
-0.3585797634211811
-0.5622282349327621
-0.5820168982021078
-0.5856437675859225
-0.5386859241150114
-0.4471400211792424
-0.42281026899497137
-0.4765700730487603
-0.4266726428922094
-0.453885170442795
-0.3251366286458335
-0.48255506402718323
-0.4535106929601443
-0.31891619695833207
-0.3773682821381829
-0.3220518512089275
-0.431266767089968
-0.5220904708037347
-0.4698408679479231
-0.6090517517393409
-0.43082738816747806
-0.46000781796862195
-0.42241412504616044
-0.433051264
-0.33118129684990766
-0.6121394697321632
-0.5574114029949429
-0.31718518604696216
-0.43849303960138664
-0.5298874479713441
-0.5415770281463113
-0.6168159074690783
-0.5392551952882827
-0.395211286817916
-0.2777076042354259
-0.5163778615408551
-0.6497163004186337
-0.6138688551869279
-0.36562944533168
-0.3004478430469384
-0.49362889977440555
-0.5642927730689372
-0.48722279825034415
-0.3427109827512575
-0.4049692521542394
-0.48658473205982644
-0.4167539863981862
-0.4274954892692749
-0.4322475848211352
-0.4802850709612265
-0.40461942727836325
-0.372831052034212
-0.6191638644348004
-0.5235815298756225
-0.33584393282504094
-0.2952561827010775
-0.546804274672989
-0.5215296993021302
-0.26428285079609165
-0.3231659009411577
-0.495074645511381
-0.43627228474558
-0.29282247500599806
-0.42639782393056425
-0.4206422208963075
-0.3290748258297833
-0.33932201563102776
-0.2599683574213874
-0.33220358867694844
-0.31309966831990077
-0.7424751647034514
-0.6496885916368812
-0.4704241625936126
-0.27314095870872834
-0.3792832521595368
-0.7319831931528554
-0.7857888544507561
-0.6071867376852347
-0.4114763656288851
-0.26936857815245224
-0.4572640060115508
-0.30169677538133216
-0.3732604215725122
-0.5626247441823865
-0.7230741910567136
-0.7425489439457635
-0.6313868462492254
-0.35183102913825076
-0.5589086084394027
-0.6918232224073502
-0.5796519187823103
-0.5178748503409788
-0.39350000656646505
-0.48765892359775176
-0.42419285754907965
-0.5430763493325763
-0.49609141353860037
-0.382203426694155
-0.39339831025694055
-0.31819098059358764
-0.37802329825721603
-0.47117031051526936
-0.3867499669450047
-0.5241090190354433
-0.42048640008266186
-0.287269232813435
-0.48345983617276295
-0.447811294667334
-0.5216855344228244
-0.41131688005469397
-0.40985497313494496
-0.5779703060765798
-0.3530046704121325
-0.33983266069575807
-0.5184664766107209
-0.5816533110973343
-0.49025162400671723
-0.5370115962689147
-0.5766627028641428
-0.2829403799276821
-0.3661887480801209
-0.5725001851622232
-0.6787265431401996
-0.581420466384845
-0.520826453812771
-0.4869947835406154
-0.29864440323295477
-0.46526368155404024
-0.6230351669304406
-0.5290675712330087
-0.3508190287249435
-0.39918970517199726
-0.5214060711522331
-0.5069284798245456
-0.34744201641203803
-0.3482963899160661
-0.42256843423763385
-0.46585183155955073
-0.32054836401068065
-0.35143345079359906
-0.44584672738913417
-0.32635822737669434
-0.3788336515395743
-0.26500645652182514
-0.7401898532754706
-0.5802753415267999
-0.38272443906095094
-0.20149433269749595
-0.4184028005788108
-0.6523657191711586
-0.4943933840143024
-0.2981955070533606
-0.2872949653742038
-0.5676176
-0.48141478683605937
-0.3846533044666239
-0.2978196246108222
-0.44064172840957744
-0.327968354160615
-0.2915726102799096
-0.29431308327628863
-0.24068655951221998
-0.29870847497737213
-0.3263917482951024
-0.7298226666666671
-0.7290440935238709
-0.4945035946443874
-0.22098899050529452
-0.22513044522403694
-0.5443395058124311
-0.6674882709237445
-0.7361543059086126
-0.5974928539447633
-0.35836583168613045
-0.15247543714717712
-0.3512490306132417
-0.2246957043039899
-0.2882163964758353
-0.42200470651720096
-0.6454148888888898
-0.6537467942502118
-0.3929521094870659
-0.2767235480471168
-0.41575227694060435
-0.6252877020836558
-0.45304233829303625
-0.29795169663153387
-0.35656775982038497
-0.2774235655911196
-0.28002245333333337
-0.535119525014455
-0.4741242014901565
-0.4017225236944058
-0.45310133333333336
-0.2156161971481709
-0.46271703132878755
-0.5544001362509116
-0.4892198520239735
-0.49388308686217347
-0.3038722353103255
-0.43783502995743834
-0.6527889427873249
-0.5545376523021447
-0.4604511145833328
-0.2231230581460152
-0.4147189269217722
-0.5334376228427018
-0.4195202689275271
-0.1959694338848056
-0.46754332692705053
-0.62420897711924
-0.6963167798412905
-0.4731868520322812
-0.5664343391924939
-0.434011182151899
-0.3075242524630999
-0.4932766933333336
-0.663567446482759
-0.4896439885136525
-0.47101892609819174
-0.5223504746284552
-0.4660053312267641
-0.40238302200179094
-0.48836675387476797
-0.3703769725124193
-0.4179760891496513
-0.4082347803249338
-0.48399928679078746
-0.39046308538051555
-0.2815865578936046
-0.2856804476406242
-0.43914516412212135
-0.38433596252557106
-0.23059116398624638
-0.361676173910257
-0.42831394475282397
-0.2818005581631166
-0.42212006110594297
-0.3342853771523677
-0.7940822222222225
-0.6477295830225862
-0.372935583223675
-0.14144925608241954
-0.3412137156352655
-0.6840781525108494
-0.7820750320314113
-0.5012177825421911
-0.29254715510109625
-0.21892954927768338
-0.5506867485646961
-0.5589517255631321
-0.3461154766501371
-0.27333337636314603
-0.31103887250463147
-0.3587018065027197
-0.29800505704925956
-0.22568593937684053
-0.2850286033383645
-0.36971221291989576
-0.39428999999999936
-0.6803324000000001
-0.7199515674320236
-0.48585752421640943
-0.1755574538761525
-0.0879598735994937
-0.5013191055123586
-0.5041741837448959
-0.6444399961063922
-0.521794772858796
-0.26819604739527164
-0.09652846487522516
-0.1988918677937628
-0.20945403897351852
-0.17811252040911849
-0.29421500206654216
-0.5711107744791662
-0.5366956412380793
-0.2674310913153922
-0.41996919999999976
-0.37644842222317004
-0.6096684224504821
-0.44203210923744574
-0.18502004444444395
-0.2719887851569278
-0.20984489632844208
-0.371726784
-0.6327044803418537
-0.5202998710457737
-0.4710493504123007
-0.4224122222222209
-0.3803035789212648
-0.6539529409323478
-0.6289925940601434
-0.5073920552083333
-0.305593874594414
-0.2505206687590889
-0.6640645270173476
-0.7084484633043523
-0.5197295690018601
-0.2382824942129614
-0.20037074248009323
-0.49436212152962083
-0.48490728347082673
-0.5262066342752655
-0.27167756320750747
-0.3007418333677751
-0.5032376959999999
-0.7432707869256577
-0.38015450732021766
-0.4852278110213622
-0.5523847695371183
-0.43842173689499897
-0.3428623999999998
-0.48850166224426567
-0.3292294093476292
-0.32642
-0.45814629903075516
-0.5386538431852869
-0.4691460802385509
-0.3001927016601224
-0.3147745922119261
-0.42382263821922733
-0.37118040970504995
-0.38026565365970916
-0.2535253363506727
-0.2605748399442625
-0.2768526947593521
-0.4493055932541417
-0.31035391927083333
-0.23463206718427734
-0.4603931853753967
-0.4432076379417235
-0.38322668136193844
-0.5685095999999997
-0.6127103657780533
-0.7677906666666673
-0.7192451500506144
-0.3878947809901862
-0.11314806739476692
-0.18695679158321923
-0.6820800767598427
-0.7906638950196324
-0.5898071887806141
-0.31350397588792595
-0.1585150821313731
-0.3368992910932022
-0.6020941072535645
-0.4371033450318247
-0.3044102892611435
-0.17973618324109483
-0.4498068297168833
-0.4341787229447067
-0.2664862618637853
-0.4330796182859021
-0.4948220901291985
-0.532896
-0.5814800663360192
-0.6575034465868937
-0.48178967690717484
-0.18679212310473672
-0.036719824613532744
-0.3024923792967659
-0.37291955846323516
-0.5617151988272605
-0.46433600347222165
-0.2427928168661397
-0.12537248711449323
-0.13475565426563482
-0.2617225783472344
-0.2090137509678295
-0.3158911068402561
-0.5740175519162345
-0.4857818673455186
-0.3691373909898737
-0.5416360000000003
-0.45058966996683125
-0.6534928865078734
-0.5543167708035065
-0.32923026666666666
-0.32279147177811024
-0.40585588840669606
-0.5649004704608398
-0.7336765204076383
-0.5704624262284633
-0.4249295127203581
-0.3303274801956322
-0.5806258920246191
-0.7540237179916859
-0.6180858077219132
-0.3594508567708327
-0.17339094013593528
-0.3566265431116287
-0.7514673124198924
-0.6044248762884904
-0.3452112913825163
-0.17054897279195635
-0.3561380536939139
-0.5591452891583896
-0.3932555375310312
-0.5564895050718489
-0.4703931842985832
-0.3017799705939392
-0.3040117333333327
-0.6144072124091987
-0.2291545708558082
-0.3467400249215318
-0.5367961396632145
-0.6108348152011588
-0.33627828363987083
-0.2725044443066742
-0.15849108547098595
-0.37456176486123854
-0.48757299343657695
-0.5724321634599634
-0.24803677159185875
-0.36053263986763767
-0.39628280352118134
-0.39485516746388855
-0.28415958243992884
-0.28517796804869905
-0.3875294897155654
-0.48025891837208956
-0.3511253898146954
-0.6246986001860001
-0.6370951679281492
-0.6575601556795476
-0.7083036789749397
-0.47865031581238765
-0.16450738631749398
-0.1023685162210883
-0.4508700061778489
-0.6576527106853917
-0.651718152544598
-0.4618773946610357
-0.2084481864347988
-0.20148072944823306
-0.5541635820234225
-0.565238560263076
-0.4731944216619102
-0.23288328008622947
-0.5055546365740857
-0.5840477789559526
-0.44526288194444336
-0.5983560011160022
-0.5402928048228938
-0.5935333085348212
-0.4601139084521601
-0.5593918817778415
-0.47931436841343306
-0.31159235569113347
-0.10459248814404593
-0.2013419710559408
-0.3752416815457738
-0.5198005946989882
-0.45064473951292355
-0.3307420255490267
-0.2931993446579861
-0.21042993018609316
-0.3978774857004333
-0.4107588679975194
-0.41968930217713846
-0.6375609405414231
-0.5119282794878205
-0.5122864049045946
-0.506091019632156
-0.48787947895964107
-0.6972042993607702
-0.6701881024978902
-0.5028540284907356
-0.5286192245406867
-0.5524176169797039
-0.6578621540483574
-0.7472074967837264
-0.5275293488318659
-0.3114807994813111
-0.34264318144244627
-0.6270463743423546
-0.7052891364827439
-0.5151197379387731
-0.23942573810177328
-0.23470257664622804
-0.4869530470774564
-0.7057689109564812
-0.4404897562168493
-0.2572190076596605
-0.3008555734830829
-0.48842900085240437
-0.533603223112598
-0.24341973444926565
-0.4854920695101282
-0.546487143387115
-0.44067641428325754
-0.23393451610663354
-0.43457480451142655
-0.17428781070656107
-0.4667508428365678
-0.6182997772276922
-0.44408349398636204
-0.2165118378300813
-0.2898953345807929
-0.4606089419657435
-0.5778261975061412
-0.3351455693920821
-0.4009414999794201
-0.4357312574948952
-0.44719580280378496
-0.3647490421914492
-0.5450225853688783
-0.5474704960515971
-0.5004700000000007
-0.5876632653839757
-0.5780000574854047
-0.36880643775457217
-0.18128760783511003
-0.3654687668620849
-0.4615340160188461
-0.5943395435275707
-0.6301495292055219
-0.4133882645889086
-0.30546885199421464
-0.42838097476563125
-0.5871301232204883
-0.6380019928469527
-0.4451293283736299
-0.4791123775353538
-0.5869604831437415
-0.6216552109375
-0.618147314882319
-0.5061221090074028
-0.57250364744782
-0.41596399999999983
-0.47923435394677066
-0.4588321195991211
-0.4937700833863423
-0.3111403926293299
-0.29115035039172943
-0.4374545047186063
-0.5319144963977926
-0.48090684831478053
-0.44066471954789604
-0.5301315764414133
-0.35303447132295057
-0.5751797310049431
-0.5680536660493173
-0.49382141592508694
-0.677436236979167
-0.5346493091413135
-0.5434317934791031
-0.47789838747675145
-0.4366555129618365
-0.6821908795677403
-0.6780284443893371
-0.535808616918096
-0.6319728921551885
-0.5167412596382608
-0.620124832
-0.6810256034196768
-0.42304852724976594
-0.2931987727098519
-0.4278215654060758
-0.611326805951643
-0.5882308148377754
-0.4143163617428946
-0.24556979333443132
-0.3552941203282802
-0.5381266130811612
-0.5973194329140409
-0.3646777100527725
-0.27992337680977825
-0.3691632996645648
-0.5082962449589806
-0.4060156292622442
-0.3097201080764406
-0.49577896217432577
-0.4380947969451013
-0.2811966672039678
-0.3819713177126038
-0.34985302471617336
-0.5358971745258222
-0.4383639752290431
-0.3114563567069175
-0.45819329668679293
-0.539598323513058
-0.3562609179436081
-0.421043885717821
-0.5228517723496591
-0.49189857268842857
-0.4325166666666665
-0.4425339379418583
-0.5897998570285062
-0.5864041131202788
-0.37851229190008495
-0.4900272262628497
-0.37839497830130236
-0.46865394151904854
-0.668406028242059
-0.5818807412569386
-0.5042151999999992
-0.34201802479851207
-0.5414455375790405
-0.6443887119812306
-0.5942096540607565
-0.3906747852862164
-0.545065795281753
-0.6215862468584782
-0.5845516545350656
-0.42881815131782935
-0.532506
-0.41724066666666665
-0.47360827838055636
-0.4248060218720695
-0.603593339880044
-0.5225363356726596
-0.42367682054602535
-0.4723871988863904
-0.5277811023622049
-0.5011549105902767
-0.47059192281160717
-0.6576988221013985
-0.4728876862136229
-0.6465458052149163
-0.563987120802483
-0.4717973459392428
-0.6518043289930554
-0.5035396308873709
-0.543342730727952
-0.5161379466831991
-0.40109717344735313
-0.604888703859851
-0.6133342349659016
-0.46977343999999926
-0.5641640423972297
-0.4757734664186814
-0.529220133333333
-0.6088608177478568
-0.3614332358019761
-0.35511702484951946
-0.4575457333333335
-0.5633479156850587
-0.5362503522549372
-0.3789614851084375
-0.2362372926345512
-0.41076797024442674
-0.4955254122752635
-0.5510674400654272
-0.3885350721746381
-0.20878709887138258
-0.34045937597706827
-0.39854370463604744
-0.3734953707237634
-0.34590349712900276
-0.232309625592064
-0.46611467618997793
-0.47480648013140253
-0.36414205427045837
-0.3077361788948209
-0.5632574428600946
-0.3049065964095568
-0.5024604564894115
-0.42990333333333347
-0.39125827065930596
-0.5187449021898837
-0.6675064984815454
-0.4996825653250648
-0.5824508782806365
-0.39951314803334087
-0.37661233199890204
-0.6232293041475608
-0.5891093633699973
-0.5572891999999999
-0.3245844802645175
-0.45630877246187734
-0.6057995652789318
-0.5394449147800973
-0.2915265102982706
-0.501549208148194
-0.5566377842168883
-0.5717672316944633
-0.34555049164513285
-0.5001933333333333
-0.4106529956602604
-0.4573359328607543
-0.39164553245064027
-0.5795656812662243
-0.5930147757017449
-0.45824415950569547
-0.4854725305686251
-0.49134246620111105
-0.47537941695601776
-0.41048482546093307
-0.6171140674454453
-0.4888315531885485
-0.5860758603596989
-0.47854167518908847
-0.4257753423572357
-0.6267065815380239
-0.4525172135123156
-0.5496065371649268
-0.44589982718346294
-0.3957444340930236
-0.5266737633673967
-0.6243520025856761
-0.40670444444444404
-0.5072465984366784
-0.46047619273954626
-0.5409135176193426
-0.588680944702194
-0.28991601979646725
-0.3460186564257715
-0.4387733333333338
-0.5458927975560729
-0.5805482446718103
-0.2886805976456683
-0.18603210501803422
-0.3877294882923102
-0.6089366486115609
-0.35020896195888346
-0.12250104700189542
-0.30724515625000054
-0.3413712450919623
-0.15443613203514236
-0.46814027779174955
-0.4059508000000012
-0.20062325181915067
-0.3583588675346159
-0.41701584418268256
-0.3721863308039192
-0.41649194877638074
-0.6325148830095872
-0.45369696596062253
-0.5248281760694358
-0.44137465980091045
-0.3111633903537159
-0.5158518116502423
-0.5546791020081975
-0.4150482131845416
-0.40373473358126644
-0.33484113865444276
-0.5550962394164517
-0.446770172732796
-0.32175307399760095
-0.43287076246321216
-0.5278457057291667
-0.5594777076487486
-0.3475381669636181
-0.5018042550113659
-0.4273999442033478
-0.43038963215681325
-0.36168136707179577
-0.45538139160394325
-0.5314807826589226
-0.354239973211877
-0.45799273362416576
-0.45301146774615536
-0.5132245359858257
-0.3677227582214257
-0.49876888853068796
-0.4166223317933841
-0.5281123545595322
-0.41603580478060187
-0.5306523051329037
-0.6007104835225512
-0.3726120800335025
-0.4284654142396009
-0.32197800000000004
-0.3084788649488346
-0.39397936041749504
-0.6897436484551472
-0.4906313655162899
-0.47090664656581266
-0.48791909039025144
-0.6491238064724117
-0.49791092509618035
-0.18847708863776477
-0.3009998278876557
-0.5989219618275106
-0.5767612020989256
-0.19825455549054183
-0.2068766067708334
-0.626313297348699
-0.29919240285732845
-0.18567928766274022
-0.2129623999999999
-0.3786150207842179
-0.19384970117792935
-0.45390058793139093
-0.38578376828831945
-0.33264595894576154
-0.5031272881621441
-0.37231642648725566
-0.3593402948743712
-0.5253333310214444
-0.3482346469840963
-0.3775322876273109
-0.5063798147005835
-0.3031329874354207
-0.5468481468368253
-0.3192361646513451
-0.47394142690747826
-0.43873129386236825
-0.44648996441235383
-0.3965330668180293
-0.5185380208333331
-0.5449837568524777
-0.3970052377943421
-0.4992177991320521
-0.42441895308948124
-0.43957881321576636
-0.4222928563838017
-0.36242552625348345
-0.41966316948129717
-0.23762881785278558
-0.35789521454931567
-0.3734005996163699
-0.5670400878267182
-0.4716634140254907
-0.40187334164083466
-0.37870438030534764
-0.45670195350996406
-0.46900725902477997
-0.6821464513308055
-0.46692761712722514
-0.25710921816822135
-0.2293960973341596
-0.20922594924681862
-0.24416993250458494
-0.6269604900733561
-0.6580844994007027
-0.44358258791326105
-0.5673689580281723
-0.677067276065303
-0.3891221014428751
-0.1779750258708002
-0.6166345043622242
-0.5628504161277211
-0.23012372399317596
-0.6130868733012218
-0.31501400615829833
-0.32366338148326645
-0.514379939036992
-0.4530399650387747
-0.36240119815306043
-0.37169034717746086
-0.3569261090976746
-0.2712978776248005
-0.6138136128519136
-0.4777451231865116
-0.32202808671408706
-0.4440534397046387
-0.3742442399999999
-0.6298562885966562
-0.41740832430136104
-0.386684651974812
-0.4692081091134534
-0.5199782953550061
-0.39870604791282455
-0.4795038497645007
-0.5141180707546722
-0.4375433385560798
-0.49900792002479855
-0.3781809558656333
-0.4259397789740423
-0.5085040073215173
-0.3966816024340061
-0.3313505163739059
-0.27894458983664716
-0.2115209175449471
-0.28270281190662594
-0.4931915937918863
-0.6097823935524448
-0.3795384417307606
-0.35645589837999475
-0.35055604061973483
-0.5933496047651429
-0.6725081445523746
-0.31423728070036644
-0.17516473135329605
-0.20067549234437412
-0.5190147249598951
-0.7134725081352898
-0.4814813994841574
-0.5827593914706578
-0.6773711016186043
-0.35998827276300543
-0.6422750729800984
-0.5398222100433963
-0.5743723352937933
-0.5222891793281662
-0.49179350254145265
-0.4664958409695151
-0.3269755283357804
-0.3756657708733846
-0.40982871047737124
-0.622728843025952
-0.5520592675550803
-0.38401336708220035
-0.37477082723532246
-0.4905464000000003
-0.5987465724271946
-0.4916511959604451
-0.3576152576774012
-0.4420345759667112
-0.48860044871348324
-0.41226612757944975
-0.4422555867366708
-0.4718609646453738
-0.4238006407876665
-0.46908066149870825
-0.32354999999999995
-0.380073286282321
-0.4821212741638927
-0.4931546078513947
-0.2903206526457447
-0.38210175693100784
-0.23966206026412043
-0.3698644173009982
-0.6223717945616033
-0.43362607384433427
-0.2860526728242552
-0.3194921931359392
-0.6626035056754511
-0.5758363532388926
-0.25428601041666665
-0.4553650750154991
-0.6901560608440996
-0.5257088116729286
-0.5714598208423908
-0.64488256
-0.6428758226906386
-0.5147866666666675
-0.4541625487340302
-0.4960207511715791
-0.3815647296025128
-0.352953388743436
-0.5684680595164293
-0.6164567245298612
-0.4945190375997684
-0.44659474349521483
-0.3605868368463836
-0.4735031446166567
-0.5787475604463732
-0.44325089900475817
-0.37844947832884374
-0.4113384406119452
-0.4542120954742708
-0.3688718694895538
-0.42348379545721154
-0.38625934086639696
-0.3627222242894059
-0.3483
-0.36007338231343183
-0.3737397793868152
-0.5330508346046497
-0.31401666763103564
-0.3693596293581906
-0.3075838064236112
-0.5343830080738008
-0.5169952422424514
-0.23177093432899853
-0.3951923749859531
-0.644818935152284
-0.48599182165736726