<?xml version="1.0" encoding="UTF-8"?>
<VTKFile type="UnstructuredGrid" version="0.1" byte_order="LittleEndian">
<UnstructuredGrid>
<Piece NumberOfPoints="1536" NumberOfCells="6750">
<PointData>
<DataArray type="Float64" Name="f" Format="ascii">
-0.6872770341207357
-0.50108
-0.6677367433471882
-0.5418168363403398
-0.5572119381238761
-0.5699511269206836
-0.6491410422944718
-0.6697643880208334
-0.5898764062166318
-0.6755225316101009
-0.7657884500929945
-0.5959930377742958
-0.7103268967780602
-0.7562580000000001
-0.5402900604211869
-0.7394475285054192
-0.6563615065096094
-0.4227940934885502
-0.6900081107483551
-0.8345308720810082
-0.7616829749591635
-0.6287329433276959
-0.6129381246125233
-0.6329545485371141
-0.5593116465449123
-0.6220705346256723
-0.6111028047736279
-0.5197832607447969
-0.7239795253564784
-0.5656514307498323
-0.4972223319720837
-0.8364339954911448
-0.5165082157998401
-0.48968480329110053
-0.44985204810911333
-0.3539544863520421
-0.7927758839679099
-0.8384122628642281
-0.7332684516808587
-0.690064297189004
-0.6905021249213502
-0.572560785019826
-0.6147690120710565
-0.5731628735275883
-0.5490035560258394
-0.5750497715093078
-0.49160026612292335
-0.7105000734035958
-0.5582556476660566
-0.5401689056218969
-0.5480883537367146
-0.7987521524816383
-0.5064662997947095
-0.4961265278652291
-0.6563574013872956
-0.4460658542026555
-0.4860427819975562
-0.4052964025353924
-0.4784488564166151
-0.4249275278877564
-0.7768401877469838
-0.7469725377144033
-0.6230084180594685
-0.7023979025040276
-0.6949343552647971
-0.5044438836068272
-0.6010577382381034
-0.6126304144319102
-0.5505038570020404
-0.5192331691725898
-0.5351706273760697
-0.5038566046703865
-0.5409998468183089
-0.5276241259048947
-0.6033674340152918
-0.6431623869063547
-0.6046810643258481
-0.49440938017611263
-0.5591880155187124
-0.46634662208205585
-0.7560951262009886
-0.48553741338168893
-0.590345483697403
-0.44372637324989667
-0.5315988753628869
-0.5594023937466487
-0.46398068408199694
-0.4866980027339692
-0.49563226608803473
-0.48199014722931477
-0.7233777269135028
-0.657346666666667
-0.5896757441048213
-0.6508177400735389
-0.5757540798611105
-0.6329130523318948
-0.6127593197295126
-0.6046337747571608
-0.5421101666606721
-0.5848666336019833
-0.46447036222029586
-0.5707545087412229
-0.565686791095652
-0.5473539447098035
-0.5666952
-0.4226907523398513
-0.5521399999999995
-0.6110933643229951
-0.5613003365317941
-0.6273606583470775
-0.4775158999793349
-0.6382240482978664
-0.6010370426486875
-0.6438837339197202
-0.4958658049601124
-0.5402150953768566
-0.662288056343373
-0.6066622336118997
-0.5907304359442699
-0.5110827560763882
-0.5459426498950001
-0.6153509248858545
-0.4908924116553004
-0.5541267454373662
-0.4952881333333332
-0.5120782703037815
-0.7088756048800987
-0.626598
-0.646217482918966
-0.6463907776783683
-0.696734453125
-0.6267213618770332
-0.563397568500898
-0.6650935641661501
-0.6322628765479923
-0.547370201387018
-0.5319669562316164
-0.5765142445095606
-0.613711307891116
-0.5415451295128864
-0.56796616
-0.4466462261213407
-0.521702881646847
-0.6311425321454324
-0.6195336866673906
-0.5510946423984405
-0.4567424513329201
-0.43713342808912775
-0.6638260000000001
-0.6069672836017618
-0.6699199896845234
-0.6271486353901348
-0.4975299486091282
-0.6118358414021687
-0.6579920681992136
-0.6924396941760574
-0.47763545847530925
-0.6812869152458304
-0.6310851553538793
-0.6767355204638931
-0.5316940752536302
-0.6358769010416667
-0.5724923416601654
-0.5671815408408599
-0.5720354500929945
-0.5647111133776582
-0.542174
-0.5657447637941724
-0.7153193523467049
-0.6775054102087212
-0.7078748555051174
-0.6862348590125857
-0.7016835515123429
-0.7019368082248398
-0.596588798790007
-0.5932704053930865
-0.6791003529879496
-0.5360218087930432
-0.5002555735028502
-0.46598415635461793
-0.5999946368383121
-0.582718361908123
-0.5700988007954078
-0.485513836536474
-0.6051033802107127
-0.6289609483386197
-0.5426078421311087
-0.4621931868741597
-0.3872651120237802
-0.5496338120156237
-0.48606397470759616
-0.6552541489848541
-0.6553716992075277
-0.5096039907143356
-0.43767985527390074
-0.5547942923499233
-0.7583940648894404
-0.5365620150939238
-0.6954377669591802
-0.6365281934718005
-0.4724034457038871
-0.6110497298688379
-0.6759584468237828
-0.6044409443945217
-0.540566898425713
-0.7724541999232503
-0.6089861935585948
-0.6283218863952609
-0.526537651746354
-0.7106579285183429
-0.5812292523371169
-0.5452848155281379
-0.6351665487715605
-0.5923434711617229
-0.5801553011365986
-0.5734809120032048
-0.7192127554144695
-0.7136688551353586
-0.6983024638405965
-0.7513603351932222
-0.7062484448453179
-0.5966686733414928
-0.595943860307706
-0.44363325151432303
-0.6996789491722115
-0.5947923186608799
-0.4335726962142061
-0.3399734997313501
-0.5403554264143976
-0.5859659431117664
-0.5544009119137361
-0.3645684290951586
-0.3060005343101817
-0.40207411769613915
-0.5630631102839563
-0.5615503217136316
-0.5933561634635256
-0.48126472886960125
-0.5990839966475986
-0.5771039957455167
-0.5501103722739552
-0.3643925567431286
-0.3781876414390957
-0.6798795076248217
-0.47792768146036496
-0.5990095965035068
-0.6017693726298107
-0.5277073443273411
-0.37646000884423886
-0.6613754769810583
-0.8581749442033474
-0.4894715265844029
-0.6195886439357867
-0.6080352856971794
-0.5194836259983113
-0.6046290319934464
-0.6294418394296347
-0.5204782433755645
-0.606018707321219
-0.848592389265619
-0.5919839750954062
-0.5637410945732592
-0.5480809339947482
-0.7750748024729625
-0.5900814069464532
-0.5285259488193907
-0.6971669346266581
-0.5725451452923808
-0.6021498860921677
-0.5355059569527505
-0.7021350921280546
-0.6685700000000001
-0.6131048750697501
-0.6800415780913253
-0.4746490312500002
-0.7321162707218521
-0.6339858350898947
-0.6976446853574565
-0.5711074329911342
-0.3441904104153752
-0.40868126861162796
-0.3020181599999999
-0.53864741509965
-0.5777571291996483
-0.5158807191568507
-0.34146039904085534
-0.3385423211407316
-0.36093294085432226
-0.4864010810940406
-0.4468033524965696
-0.6315463380863812
-0.3629915532106263
-0.30717535283344594
-0.44583404882966177
-0.4381090046224543
-0.5681196574393419
-0.5271621525108492
-0.5517391518484377
-0.5129049118448178
-0.5149273992309299
-0.5015258972034453
-0.44211643732176076
-0.3486268178606173
-0.7955918662857746
-0.5089444778192166
-0.5035375432076937
-0.5182652867390948
-0.5624770936970447
-0.4502875651658546
-0.7477123910296809
-0.908112
-0.49412596731420605
-0.5198452326178842
-0.548874357897637
-0.6009967295520856
-0.5569017630824772
-0.5453242032982021
-0.4962167014167526
-0.6809650411296073
-0.9226744022568045
-0.5485472211191692
-0.5083519972952678
-0.6050115243616075
-0.8697149999999999
-0.5382634403482899
-0.5243540425913983
-0.7700212138871668
-0.5140789614156932
-0.6121656
-0.4994824885306882
-0.6600559224998446
-0.6152366666666665
-0.540521145348957
-0.661548667637076
-0.6096831472472067
-0.43401247829861117
-0.5191406869747758
-0.3670668578218645
-0.6737352465056342
-0.6108526997560758
-0.5021530824550525
-0.6036819047464305
-0.5967909857754242
-0.4186799293461761
-0.36570960000000047
-0.40025546219273817
-0.44512245505269726
-0.44959795450725965
-0.531614917753029
-0.4015710865355804
-0.5722377777777777
-0.4401332258788803
-0.3828743912437044
-0.4621037302605249
-0.3908799418865596
-0.4279465430108644
-0.616353908658814
-0.4106331660640394
-0.42294174071759144
-0.5066614066255183
-0.37759349103009293
-0.5229022980883963
-0.5239768648744378
-0.6532932566411758
-0.4735250053548161
-0.45414846480042753
-0.45314784494041466
-0.6065387377226709
-0.4115090210944987
-0.8476696898753792
-0.5556177250790152
-0.46882952656187854
-0.45080009784432545
-0.5529101777777773
-0.6211896259842187
-0.8186924307981588
-0.8083799999999994
-0.5245119513694566
-0.4793355241270038
-0.4705049625625128
-0.5864181414892883
-0.46428972131807217
-0.4623973402376353
-0.5231781444720572
-0.7756084983294401
-0.8541847056027442
-0.4471379979572146
-0.4906019463140227
-0.6938655144452534
-0.835993780381944
-0.47354834108360594
-0.5559046061099054
-0.744146849555693
-0.48487740843315214
-0.5764526666666665
-0.4646988179375904
-0.6220245762291522
-0.6260623579251909
-0.5271248419520232
-0.6470409096616588
-0.6835757935523868
-0.5706502258976248
-0.699608713911786
-0.6795448088448024
-0.6230504696618303
-0.6822337042493417
-0.5437239968992255
-0.5829649898117618
-0.5662072713252426
-0.46172
-0.5371143914687829
-0.5074042011284027
-0.581984690225254
-0.5335793243315697
-0.48206418428609515
-0.5177946242329102
-0.5955107816191506
-0.466698201338191
-0.4910977334459738
-0.4412428435734183
-0.48047091192395036
-0.5903761390767067
-0.6213609043617279
-0.4891230891069795
-0.526636666666666
-0.4754607657141215
-0.6491062236964269
-0.5316641358963836
-0.4548670288217915
-0.5076268588743528
-0.4924732408875911
-0.4984586884645588
-0.5729181933094943
-0.513924309458112
-0.38431307987682595
-0.6386373333333334
-0.48844925784123566
-0.4740048207525464
-0.6096088532228929
-0.3891431701388886
-0.46509003848141056
-0.6000719170636087
-0.42003822421785547
-0.6373520303000345
-0.5536113159743751
-0.38349185156249993
-0.5091933958568847
-0.6235938638188729
-0.702185473444927
-0.5100746465254494
-0.4608685920370554
-0.4351985298615411
-0.6966460266666666
-0.5729388682443214
-0.7733853506795895
-0.6077192759990937
-0.4780145229678077
-0.45265495908355885
-0.5094813599999989
-0.6981656139698283
-0.7858235080503664
-0.6493413349865683
-0.5817586784376192
-0.4868035787418665
-0.41382431046014356
-0.5020410233519313
-0.3662366744411862
-0.4400708588836928
-0.5844862447070954
-0.7721364054842365
-0.670549219743239
-0.39695721114557175
-0.5180443741103535
-0.6979040150098332
-0.6702991236594391
-0.4541511279069486
-0.5370238525802383
-0.6399990965403416
-0.42733079212865116
-0.5449160004959702
-0.4822248210313826
-0.544572512227045
-0.5215430751326947
-0.5634983103107565
-0.5826754926596739
-0.5795832610464565
-0.6469075806920338
-0.6410233795486845
-0.6469650396538215
-0.6839756363250968
-0.6606657596581406
-0.6223869092616696
-0.6790159635416667
-0.5681446513110762
-0.62151038416206
-0.5949121430047529
-0.42526858152510866
-0.4967081430089682
-0.4792489950275039
-0.6123486188060895
-0.41827422999654834
-0.5624485224800803
-0.4950034569532155
-0.499023707679037
-0.58114176900186
-0.47026739676794443
-0.5378008544225102
-0.5141682498595711
-0.6644091904157624
-0.5542665425269059
-0.49880914961768913
-0.6279524
-0.46158438944629426
-0.6754304574371678
-0.6369108538496312
-0.520758316070813
-0.4288940351033415
-0.47602879921336455
-0.5292011836081835
-0.7115628464969146
-0.5527226950985811
-0.46852258205716407
-0.649063184197837
-0.40136366614176744
-0.6241492977072834
-0.7264239379245434
-0.44171357447916654
-0.5044276540433489
-0.6737536915334225
-0.48255859762347314
-0.798601418805538
-0.5649734712957225
-0.4290845599887565
-0.5755181228186501
-0.6808172424054558
-0.67547571089068
-0.5591346099930442
-0.5148141017541067
-0.4628618150280102
-0.6833908159999997
-0.7146837792278163
-0.6607854537839988
-0.6432403134119938
-0.5116374629935484
-0.4896162916353184
-0.48799923734931383
-0.6732900937383758
-0.6716247072529297
-0.5642644885306881
-0.6300501706045796
-0.5179262054915328
-0.41369719458114856
-0.4511555138623408
-0.355028610880953
-0.46147509366397993
-0.6078303698076836
-0.6758057157490106
-0.5785106354716739
-0.40914179550182966
-0.4873615134531928
-0.6373042238074443
-0.612385122696935
-0.3676909597450808
-0.49192496064417196
-0.6298943820377597
-0.37239994316689345
-0.5750537756974581
-0.5434569765647911
-0.4290050630295517
-0.4689269116783558
-0.5360130616414421
-0.7051736868159066
-0.5098406427088641
-0.5218308927641034
-0.5989772010093194
-0.7775302640733956
-0.5837696651979866
-0.6187288812832624
-0.6263750484878835
-0.7921699504029761
-0.6307274013011277
-0.6546266991158677
-0.6070888182746764
-0.6227134525623652
-0.6339844331556749
-0.5886152355858648
-0.36096119735482546
-0.5002189112409218
-0.4251612036115968
-0.5355312100066226
-0.6760979805744994
-0.4198342167803269
-0.5546560283430128
-0.5701912665592489
-0.45107170003574965
-0.45340580143381287
-0.595699099683075
-0.34931379819397884
-0.43852200005671443
-0.579184033464026
-0.7065928759907565
-0.5321981609191971
-0.5744613639181644
-0.6665819607356892
-0.5176345894902218
-0.7022793066731379
-0.717060150395366
-0.5080210388096712
-0.3676257063508644
-0.3534006339295814
-0.5786593815747061
-0.8297548780323433
-0.5845967635624943
-0.5137583022493489
-0.6811558720810084
-0.3664900980771166
-0.7958159414479574
-0.7250094791627041
-0.44587433652840197
-0.5884258960622476
-0.7124367906592272
-0.63121241319656
-0.7968718439842948
-0.5279101060115251
-0.5217201978095717
-0.6239745670391431
-0.6533096507542879
-0.6503259788515259
-0.5918891069950067
-0.5543673749930041
-0.5249797395461188
-0.6310091181483773
-0.7485758072321821
-0.5971974474962797
-0.6475067769959483
-0.5617547563295945
-0.5095383269562621
-0.5004949405524551
-0.647292504608339
-0.6066775257092911
-0.5469268836536473
-0.6366560011163428
-0.5483246779076084
-0.4200150613267207
-0.4563102307590199
-0.3767821885681116
-0.4437561908245502
-0.5947831898620582
-0.64329625457871
-0.5907269970649303
-0.3378182528566777
-0.43130264097419885
-0.649618239860365
-0.6883769337390541
-0.26764175583625205
-0.5302391727035735
-0.7474234668866974
-0.42581671876944766
-0.6994165335399884
-0.6519509695102327
-0.41093478955707147
-0.5011844494443131
-0.4153618626754565
-0.5515646264961164
-0.7539128484134364
-0.5247525005337174
-0.5367714886745324
-0.46702443790251585
-0.6008392803028352
-0.7726867999999999
-0.6318151049824181
-0.6028443537611748
-0.5335760901071515
-0.6187605180779172
-0.705789501171661
-0.6274443793600928
-0.5627546242027133
-0.5708532743187992
-0.7013039459074184
-0.5747286112833232
-0.3628400000000001
-0.5453970372938156
-0.47445243251409686
-0.3629703558031974
-0.4615014469171908
-0.625850066503586
-0.43560974312874645
-0.5445737834542334
-0.631853001139289
-0.45776813044497194
-0.3062286664557338
-0.3574167904795496
-0.2439163826109055
-0.4236055183358202
-0.6283640076450543
-0.7108850998263887
-0.5213278233804689
-0.6011795954399994
-0.6919170314114486
-0.5109480887323526
-0.6844585335571014
-0.7852990051663568
-0.516641076200317
-0.33890387333997296
-0.30580757417997834
-0.7056243733333326
-0.8194672364195282
-0.498340278560855
-0.5685340810075883
-0.6934213333333332
-0.5020965323413922
-0.8203855141062205
-0.5803116430582128
-0.4857334188324997
-0.6374377852729043
-0.6370911751739331
-0.705993164437735
-0.670766516866122
-0.5318424864991855
-0.5764536310763887
-0.5862855689116983
-0.6285903799459777
-0.6286094951457386
-0.6131324872863453
-0.5497566185038442
-0.5366565071295722
-0.598409136631536
-0.7082612013442651
-0.5825766556039349
-0.6323542010745036
-0.5962662844138324
-0.5119328312367041
-0.47039943999999956
-0.6182068385878995
-0.6152748824921569
-0.5342011131782948
-0.641989089945719
-0.5675663265061454
-0.4051046288076047
-0.4382944128952256
-0.33656781394761254
-0.4220158367184789
-0.6219832620845908
-0.6857171401880714
-0.5951625831008809
-0.25286255762221915
-0.47773489674239594
-0.7309562439333824
-0.7423257528356481
-0.33474853336597193
-0.6671443032974603
-0.8573112106386896
-0.613390937448867
-0.847031887173126
-0.7814709807568028
-0.42107000000000055
-0.5753625244863265
-0.41001797337729523
-0.31755886010155354
-0.5251877215251318
-0.6356741227526349
-0.5617562175380578
-0.6288307062295287
-0.40939892603577027
-0.39492287550174354
-0.5556846398247455
-0.7167290090927877
-0.6819093645805956
-0.44359431482472433
-0.4953065476079293
-0.8135901742784325
-0.6587944133191764
-0.4753019125045206
-0.533464081052779
-0.7971757333333332
-0.6432099999999995
-0.323344
-0.5446353570173806
-0.5652022652217638
-0.3075306127070176
-0.23506538713486488
-0.3963685854350922
-0.4200977248320716
-0.49351983741087463
-0.626271944444444
-0.5356535135558377
-0.2815073849920573
-0.19994897780051127
-0.2933700099960244
-0.48781505743863823
-0.6608575614796446
-0.6714855098958332
-0.4437552197061658
-0.6354081849428418
-0.7350528
-0.5047744837436103
-0.5396005827744363
-0.7861764839429634
-0.599499555555555
-0.3810531945704398
-0.41445059378659427
-0.7625106079999998
-0.6382686966738582
-0.4299949165804151
-0.6247731647591297
-0.5957399999999993
-0.6086599938003721
-0.670100751054147
-0.47599078188818905
-0.5396687468749999
-0.5488013266648752
-0.5752430334450648
-0.6443561383448662
-0.5624589096941007
-0.5395996763794173
-0.5048065118634254
-0.5559495237362367
-0.6154378176915397
-0.6068085893186732
-0.6191880135941585
-0.5462676775930535
-0.46656410622029304
-0.5506291519999996
-0.6231972228786941
-0.6149914120342083
-0.6220395238333031
-0.6160944938267542
-0.5246120484423824
-0.4101724444444439
-0.5571649654060756
-0.6459034159077439
-0.5072900000000001
-0.6463724463037334
-0.5881989039707114
-0.4144251471283999
-0.40728839911827447
-0.30521198435840935
-0.460634547969939
-0.6593241236547361
-0.7098178832851864
-0.5706143654287308
-0.3142954006544355
-0.5974015803018262
-0.7863023597659011
-0.7122957421875
-0.5491476840053896
-0.8096723131199433
-0.8339152231866088
-0.8247587360751377
-0.8376956
-0.7519817482951023
-0.35662333333333374
-0.5892251403516116
-0.5325851799102014
-0.2215438561248427
-0.31450246130298587
-0.41295725368266123
-0.5149530882413709
-0.6875959979562508
-0.5208124418332373
-0.28297522970536804
-0.426981460136392
-0.7040131642901425
-0.7640109280821927
-0.48848194908263304
-0.4212628669618634
-0.8006255127092375
-0.7402781541596289
-0.44848738145095
-0.6152140413747488
-0.7929049387080106
-0.71709
-0.27494575449473035
-0.4768973592493851
-0.5974281979003423
-0.43822586935992475
-0.18355934322599954
-0.25023393053600046
-0.4802548532156819
-0.38967390638596205
-0.5809679331597216
-0.6130214270435913
-0.4223641756755765
-0.23693580186875188
-0.4364183191596203
-0.5868971957291449
-0.6673485604463726
-0.5504334373285946
-0.40141359558007556
-0.7467265782186399
-0.7007199999999997
-0.5630681979337614
-0.4041449183975451
-0.6753330910368409
-0.660957546666666
-0.4600255640736907
-0.5176257892126471
-0.6760374996321551
-0.46818693874468026
-0.44865565167992655
-0.5798556587099841
-0.532603556519942
-0.5674487245515129
-0.5061100568354421
-0.47123445627250743
-0.4836787144097218
-0.4858925742741906
-0.6036527292296124
-0.5020735354303187
-0.5309945614465795
-0.46600390266583963
-0.4498982374444977
-0.5953081612690364
-0.607438670081779
-0.6743432934115731
-0.5955665604675634
-0.5776061497827213
-0.42815433665901975
-0.49137559999999963
-0.5568420977001926
-0.6720523262446533
-0.66305282409423
-0.591159717473115
-0.5302199069466039
-0.39778911028449393
-0.5389787691671833
-0.6732836248980306
-0.6427143816993044
-0.5802056682173036
-0.4255455564669266
-0.41289426563020876
-0.3396589685068836
-0.5285376679919446
-0.6766893709086385
-0.6862352025660298
-0.48490857689099803
-0.7236671740366541
-0.7419503839737888
-0.7771030264566313
-0.7933388887345773
-0.8331448752236296
-0.2855717131638769
-0.5336873593039916
-0.6385386485443246
-0.3590082675335084
-0.25255999670239954
-0.32648020139694683
-0.42987195848136667
-0.666113892672673
-0.6617277201329869
-0.34872189443799706
-0.4124353056416616
-0.6197797931887878
-0.7551308958849817
-0.6213297723675705
-0.4127637340113593
-0.711078575666637
-0.7691736414314626
-0.5458354036458326
-0.7261514558869119
-0.7284859689926751
-0.7600288169043192
-0.3464876488943989
-0.3795028417290025
-0.573252192270269
-0.6037197809288594
-0.33763445424613514
-0.26221167075168467
-0.6544373847902466
-0.3436902314849648
-0.5005945037476707
-0.642087000510934
-0.5884288533168006
-0.4043877811410767
-0.5370147208662001
-0.6445811448150441
-0.6235528316155056
-0.42081116362658905
-0.48279340464455894
-0.8131651722118898
-0.6472894449266381
-0.6104097661948078
-0.39737039439778593
-0.5205717630125258
-0.6405029940483563
-0.5177947671731553
-0.5204663720337966
-0.5129534126968393
-0.43190707060523065
-0.4668161873023154
-0.5402851019096638
-0.5974079045257285
-0.4080700646165498
-0.46587350587311444
-0.47350798508181674
-0.443789018927701
-0.5495012698668981
-0.6417758900363137
-0.4290667099036601
-0.552751640132259
-0.4205302128318593
-0.4886535243835895
-0.5881129722835431
-0.6842191358458641
-0.8020067121306054
-0.6111321539720489
-0.5435993890919727
-0.4213141834190512
-0.46597384510849343
-0.5920012438088601
-0.7476370787438477
-0.5523941918983213
-0.4795326646921823
-0.3661465355651996
-0.5565772165645758
-0.6487066524766764
-0.5681931511864916
-0.41621091922096015
-0.3906934823620642
-0.4137674048760693
-0.6144457404537356
-0.6624087058036288
-0.6504704178487214
-0.7659313474271546
-0.8693920966401452
-0.30851267272852484
-0.43297243887143627
-0.6597364303526683
-0.5639368329024931
-0.33061574946076533
-0.37107113146478415
-0.4037260167436924
-0.5626320188556305
-0.711559154319882
-0.5152098182869266
-0.427881158255838
-0.6006991428498586
-0.6530690680651433
-0.7118032553308034
-0.4887551446579866
-0.7167770759787756
-0.7158538213082261
-0.6721286041666666
-0.7776752588949772
-0.7507298674447968
-0.8330846786526138
-0.5213967999999999
-0.3203775253578138
-0.47773270649010396
-0.6836066796502691
-0.5439158281600869
-0.3622326532369056
-0.7684416928428747
-0.4385058490668979
-0.39199951441673675
-0.5760089426276768
-0.678274705096094
-0.5512535622534339
-0.5768762386311008
-0.6071899265175432
-0.5107970874944451
-0.41458461979166655
-0.6004812992504598
-0.7696846498299177
-0.6256920991940483
-0.6307256831381115
-0.4781251200778793
-0.45890077470551754
-0.530240841358408
-0.5055066217966101
-0.4217133170862688
-0.4361369760000002
-0.4858995168478533
-0.506256366525904
-0.552135536087551
-0.6379278711166222
-0.31823277073775585
-0.5417655845422614
-0.4849780339416245
-0.4617463853787261
-0.5477639107572898
-0.6781759913933566
-0.5123469785683437
-0.5530245477069299
-0.39783495223134735
-0.4662791108117137
-0.5548383454272265
-0.8086818040917547
-0.7016222928556831
-0.48292009092318205
-0.3647760026334221
-0.3921079930068194
-0.6242884301160664
-0.565678537287372
-0.4534383763084815
-0.29451435581731755
-0.4783383555553931
-0.5811008808247388
-0.4538764243239944
-0.3380865490422092
-0.4829774896476175
-0.6986564038437691
-0.7684238269769529
-0.41028599999999954
-0.34220608616103115
-0.5489314708284548
-0.6839462356282074
-0.4823988365615843
-0.4232717070014033
-0.4372219070055791
-0.4661438046961804
-0.6218117935435505
-0.655040305480247
-0.47125639999999963
-0.6106302306261624
-0.5790377350145944
-0.6876521009040863
-0.6016229411035338
-0.7363819683818974
-0.6810715864732745
-0.727519946520136
-0.8212718349062255
-0.7834081153488369
-0.8766039999999999
-0.6349720000000003
-0.3836823744807489
-0.3397725933028608
-0.5972222500674002
-0.6785308199545361
-0.4887408281598742
-0.7227513617267086
-0.603986700022734
-0.3933596883680554
-0.44378573567200985
-0.613950010860917
-0.6177958840640094
-0.5143306045307366
-0.512108257431566
-0.47548007894193
-0.559628690972223
-0.6469495872524735
-0.6502711633398917
-0.5804928832403388
-0.5963556102623978
-0.5613029046040962
-0.5542528685678861
-0.4900579200000001
-0.4537466419768447
-0.39390447943790113
-0.5345919466666674
-0.5298356853743479
-0.5191152530411393
-0.4998710275839689
-0.624953518001723
-0.43168036660467113
-0.5560405173512671
-0.4545813302121851
-0.42860503934261324
-0.512995431967232
-0.7306288427361021
-0.55541064044822
-0.44675470357992336
-0.34249122141070143
-0.4741475406415981
-0.5937089767237643
-0.4906926218049313
-0.4150601971685688
-0.281162819094854
-0.5204188669709182
-0.4990748311719193
-0.34863176082687297
-0.33114472309455534
-0.5582293221740023
-0.34514447837397816
-0.5611999101265323
-0.5158933333333334
-0.36376153058795135
-0.39225715986199927
-0.6415417702605875
-0.6260807329074942
-0.4795653337466415
-0.48443506440724676
-0.4569613450141236
-0.5015690256369658
-0.687132816133346
-0.5582068800000001
-0.5549682506716261
-0.5753230002761763
-0.63177191757404
-0.6721197953152259
-0.6417657997520149
-0.7104876952007507
-0.7594425711329279
-0.8846247919895839
-0.7027431782945728
-0.783266666666666
-0.6115209489563965
-0.573441846501471
-0.34161075388391643
-0.44060548846755765
-0.6533568580819648
-0.5836052890197382
-0.5920185135789665
-0.6682452522098803
-0.601610840567131
-0.45521777604083996
-0.4859256641213479
-0.5525355707545481
-0.42485211276454665
-0.5548646796941518
-0.6491492612109954
-0.6658261048081558
-0.5993180715274454
-0.5671942902353699
-0.5622322199483205
-0.5393869699854624
-0.5681527770436628
-0.6249422686278708
-0.6527449333333348
-0.5330245718724447
-0.5646857257009045
-0.5815640466542678
-0.49271184161366705
-0.4917301912541046
-0.5037686466162046
-0.6376166666666672
-0.5080583269775296
-0.43548488491001075
-0.399211146501165
-0.5150396087747625
-0.5601152836505673
-0.447319773199854
-0.3182269967726698
-0.461922661141916
-0.5619288758680547
-0.5608116005373003
-0.35092305094780313
-0.3543678815148152
-0.5166889333333333
-0.3002430108555325
-0.434285569332507
-0.5332334332162292
-0.5060536366168686
-0.38479928147118453
-0.533190895446944
-0.6751967056813603
-0.5545812163670182
-0.4648756946925135
-0.49102874914576883
-0.5109520258385113
-0.6639780563113642
-0.6201053376317421
-0.4619768342046002
-0.5622579279380256
-0.6778776020171177
-0.7190682568030313
-0.5533128570874927
-0.698278516159693
-0.8405618645833334
-0.8313052495504981
-0.6276115289754379
-0.645772477784667
-0.5229240241785493
-0.6680723747255292
-0.551388783571454
-0.46229684576897495
-0.5446047751832576
-0.5759535865564739
-0.5648289646319061
-0.6008844961091172
-0.7464407191676138
-0.6844831167296396
-0.5325587919652821
-0.43897557778663937
-0.5115198782420728
-0.7818224168354354
-0.7692435794968308
-0.6258082394767772
-0.6003692274887965
-0.6078064546012616
-0.59783
-0.593236544271797
-0.5715197624726275
-0.5546496430430602
-0.7468163183853421
-0.7588763563478885
-0.6703232753932687
-0.4551677445257282
-0.45029417819445733
-0.5817274030699768
-0.6098408532457064
-0.4061277302139428
-0.3206020581610858
-0.48711889134391423
-0.6850642057291667
-0.31641449145650563
-0.34397221210233125
-0.6609620378177309
-0.53901864
-0.2872217523964506
-0.41319231122132677
-0.46944734345939215
-0.5699785488105716
-0.5228733256645234
-0.5608059895003498
-0.6513601776424345
-0.573271346967518
-0.40097706983274356
-0.4914068958079814
-0.5943198693835612
-0.7056905124072975
-0.6465156432320728
-0.4234146267078283
-0.5477334599587619
-0.7266892920197203
-0.7781538177309363
-0.5531506559056556
-0.6421345805356036
-0.8247788845486106
-0.671452142627167
-0.6248031415729113
-0.5809449411035337
-0.534461164496797
-0.5767477285620347
-0.693433823419065
-0.6580755945204985
-0.5525685001529244
-0.5102065790078578
-0.6751218491051115
-0.6045835112626708
-0.6550157803889401
-0.8297821654108332
-0.7330112432320738
-0.4641185390943621
-0.7172922884282461
-0.9003774973974324
-0.644697781357607
-0.5979772038996846
-0.6894660810595781
-0.6658256375284156
-0.6913164910692854
-0.6129957353829935
-0.48010973088995706
-0.5830268218640223
-0.8724231730937193
-0.5405530694859287
-0.33227678222773255
-0.454583940980753
-0.7046985018507393
-0.2968231077735951
-0.2937437151902423
-0.6095705041912503
-0.2527840910360128
-0.45916422942756707
-0.35606079057556567
-0.469005936488255
-0.48511318327002995
-0.6198104414842756
-0.6741010653337107
-0.6425239412341083
-0.5402300490128065
-0.4138797037188932
-0.4630029702030976
-0.6411190947663704
-0.7371002912233879
-0.6442874400000002
-0.48565598909946844
-0.5596325665589551
-0.6826695630473819
-0.7544444761314316
-0.6142612077185657
-0.6240855732854237
-0.6744097325522457
-0.592227159197945
-0.6403829973975448
-0.5656903440793551
-0.6437213645478032
-0.5210511073403866
-0.6031911183000956
-0.7923999365341198
-0.6458527664531243
-0.4878026118966856
-0.725275165323414
-0.6680998326958272
-0.5391920232120988
-0.6970626604068321
-0.8750801820686359
-0.5761943020312972
-0.869088341789544
-0.7258053403738756
-0.482023072908385
-0.5671845284313092
-0.7137421589021028
-0.6124541718680047
-0.4062325374451452
-0.39843892154026267
-0.7237681269676628
-0.4036003153546685
-0.27367202111007766
-0.4570059445365195
-0.2680810999899716
-0.32968866323620644
-0.2794745801606525
-0.5520773650301456
-0.4169675528806278
-0.5890933346824169
-0.7469652206316416
-0.6276217656365205
-0.5016410737755734
-0.5050842611627208
-0.4559553274479615
-0.6469739859568354
-0.7013866251572378
-0.5970883999999997
-0.5878834917250179
-0.5897921068181389
-0.6582063304596718
-0.649304485525682
-0.6803672025132791
-0.642608527232785
-0.6168567269879172
-0.6025691595564159
-0.6319420007748472
-0.5363459875968994
-0.6775340000000001
-0.5444295966140552
-0.4551362942638147
-0.7384461427154423
-0.7593170411398624
-0.49765431356255446
-0.6358584764089529
-0.4676606611981407
-0.49119352057832916
-0.8100581556444092
-0.7424158939599078
-0.8202497967121811
-0.5007958545071088
-0.38142600367908686
-0.4865709218749999
-0.34039588220706757
-0.333378450549527
-0.5496687409745169
-0.3945905620329659
-0.27527087999999994
-0.30324691506509605
-0.6043833333333329
-0.43471304627938134
-0.5052763582133258
-0.7592527224256286
-0.649655264280204
-0.4702018681545774
-0.5950071874354204
-0.4798837140252357
-0.6450735257459111
-0.6978461492612972
-0.5692139356891921
-0.6609624395536269
-0.6081880677568283
-0.7062477398039578
-0.6312423580091086
-0.6873818640214919
-0.6350545495599712
-0.6929173258009474
-0.5939191723935718
-0.5696351741602075
-0.47797
-0.5419241480149622
-0.39623954166958364
-0.5982681759958234
-0.8118162494780408
-0.6122166507113596
-0.4248942578124999
-0.41333622701227607
-0.6454948678781492
-0.8269484775474396
-0.6757827183080619
-0.44672968743018
-0.34702445443273433
-0.3404212000000005
-0.5374499741396327
-0.4272395102293868
-0.49832708181675517
-0.4701471458788274
-0.7323550213296869
-0.7076621525269466
-0.5197034419427701
-0.5390109579630319
-0.6386393853392515
-0.7592653912001062
-0.6011829769373839
-0.6130833881525773
-0.7349066373050789