<?xml version="1.0" encoding="UTF-8"?>
<VTKFile type="UnstructuredGrid" version="0.1" byte_order="LittleEndian">
<UnstructuredGrid>
<Piece NumberOfPoints="1536" NumberOfCells="6750">
<PointData>
<DataArray type="Float64" Name="f" Format="ascii">
-0.37104861264389183
-0.37219
-0.2999560961521399
-0.5494480934961872
-0.3860035730671461
-0.6252357899412199
-0.17679704264332985
-0.31685286458333334
-0.5489991336577902
-0.15393240097703179
-0.2807200712957223
-0.40405683113644203
-0.25246598505383705
-0.3245588
-0.3148383531940397
-0.3089968889324349
-0.3595911407315561
-0.28577922752317075
-0.49014484258994256
-0.33209969725149846
-0.24680472092698688
-0.4464524918948806
-0.5691244110353377
-0.173813428427931
-0.30792057756853825
-0.21926710843436317
-0.6483169625907986
-0.24233308206584694
-0.34657733506922866
-0.5885980536464254
-0.29531308154729685
-0.3812709266970535
-0.4379067886695553
-0.32148027932417866
-0.3197946048357095
-0.28213628529857915
-0.36403126010282955
-0.289282228766274
-0.25302601993413537
-0.5176105132941017
-0.2497911870002942
-0.25646272555183147
-0.4939980855866158
-0.6132634066955981
-0.13331667485675855
-0.3275704018141119
-0.1890524901914744
-0.3974697650340979
-0.3632452675886501
-0.6371709466955762
-0.3718580721761653
-0.38062158413564
-0.288793613201679
-0.586001852590928
-0.4555769873160275
-0.3372239952308575
-0.5043011037115516
-0.3804527324079298
-0.4424454631122134
-0.41260072882142884
-0.29884342870935837
-0.3083022091341189
-0.296685626062172
-0.4198019723693549
-0.1978896444941771
-0.30002506544051816
-0.5961494533157962
-0.2924089409202264
-0.13630083927560885
-0.3030540458863435
-0.5418746290047148
-0.679197292829097
-0.1393845953779929
-0.24922572268211782
-0.2699252968795199
-0.4406785843685915
-0.2476195121819034
-0.17526877909322203
-0.4038586130896482
-0.6737370496070564
-0.5247987008915619
-0.37462256868600613
-0.34403393082750805
-0.6691611710004873
-0.5040422915670874
-0.4148955443670872
-0.6880295531706836
-0.47815902236056124
-0.6985205720190136
-0.6655229042214497
-0.34689361333459795
-0.37210666666666636
-0.39589329261991807
-0.28993623890091075
-0.3726943055555551
-0.3760475535161522
-0.5094503532321025
-0.2299004563755024
-0.24472186177705083
-0.283660242818764
-0.67193354186883
-0.35187773373045217
-0.12029498023426526
-0.32238074310026116
-0.1928431999999998
-0.5848660982267258
-0.648576666666667
-0.15936780059654507
-0.23546358306496865
-0.4343050773672252
-0.21621435007232837
-0.49359053137153625
-0.46637768664120455
-0.15871810374021578
-0.4927619130872392
-0.6659917969702607
-0.5916734701757578
-0.3413602257553483
-0.5057896972819319
-0.7457746137152776
-0.4932513269371459
-0.5936492525987069
-0.8544557873527586
-0.625116061324616
-0.9232870666666658
-0.9110206943583377
-0.4428589262267409
-0.409696
-0.46532862148924276
-0.43982987440068827
-0.4449539505208335
-0.38048860700546455
-0.3912494512880487
-0.34112465964042166
-0.3058359439660332
-0.427850739312368
-0.5575807497565446
-0.24005383603084743
-0.26019667893486614
-0.40147971215736716
-0.29702232
-0.626516948698342
-0.3689050585403439
-0.09252863627504125
-0.3889965946376385
-0.44580145089659123
-0.400072670799752
-0.5692110978344195
-0.556618
-0.20718592878719025
-0.1735896104571872
-0.5614292689115671
-0.5015680529765421
-0.6352656674850542
-0.3739847441433117
-0.24715084951038482
-0.573671682873437
-0.5838030635501269
-0.5017135199356745
-0.41864648012514377
-0.6700882347550136
-0.6849009348958334
-0.5336407384086206
-0.7697845472020712
-0.8015082634841909
-0.7841537052806905
-0.9022047999999999
-0.960925429634222
-0.45922803087606184
-0.46723614899772736
-0.5174523542536796
-0.4741833877852029
-0.49769733601526495
-0.41698856409726565
-0.44134549507540316
-0.4233652673120358
-0.42076049932596615
-0.3591878471064622
-0.44398436981606965
-0.44208970150857674
-0.4133657351281579
-0.2592510307114788
-0.41143178566775135
-0.5203313856168642
-0.17570396324604728
-0.22422703702981653
-0.5077188807050335
-0.4960173673738821
-0.5929070548602384
-0.5036272295037919
-0.3708345381942111
-0.029152876809793515
-0.3498472218351596
-0.6167461380312731
-0.5721109358725124
-0.4804415665944055
-0.4465492953089476
-0.3083492915400203
-0.1279398511386383
-0.4922749859093312
-0.6730083899121455
-0.5426524225258378
-0.32433346092449694
-0.41322974431509724
-0.5098473564120716
-0.4731520392613379
-0.4376525427099415
-0.5725635550733624
-0.6124579082825842
-0.5465785350795613
-0.6491030450783893
-0.7447249174844474
-0.596408101130102
-0.8389200606057292
-0.6666600777846651
-0.7583473463503728
-0.4463380301346615
-0.6285504742715428
-0.6637536901575632
-0.4256048898532762
-0.44827137741965767
-0.612250558754929
-0.42855105683479716
-0.5293992409071799
-0.42073103321593647
-0.30768337673072965
-0.4501417757325446
-0.521447506922918
-0.408105549107028
-0.29865455152282716
-0.30966158371092833
-0.5239208962837923
-0.6081900520415154
-0.4758457772503378
-0.36339405544738484
-0.15530786423508933
-0.3669818836536476
-0.4365803771440386
-0.15488442454858434
-0.11233008065162182
-0.5041846328603726
-0.5742780378921264
-0.6041844418267941
-0.4096168105677283
-0.35839675261051157
-0.07450551108116171
-0.24153500306424083
-0.6022157586278157
-0.6492454718616446
-0.3920130411872595
-0.36350050630295533
-0.3434410832106333
-0.20648880153688953
-0.3778358230238139
-0.6293114209319374
-0.41792061587536894
-0.4002099505682987
-0.44642409651081044
-0.37497806712849546
-0.3979313081244599
-0.49886850602352933
-0.6186307144616662
-0.4030724379664718
-0.4592401742178894
-0.7527291334635527
-0.5316560515480363
-0.473018650935191
-0.6958252326091098
-0.4982843864021496
-0.556717089123465
-0.5520770153622478
-0.7689919999999999
-0.7732094598549198
-0.5533219398202505
-0.682049015625
-0.40790876501686674
-0.2765013329200247
-0.3764236658951064
-0.5123018742721092
-0.5711221308121514
-0.49881552324315653
-0.4928815200000001
-0.3345508018304295
-0.2504782180131538
-0.24238902252531527
-0.52735806343272
-0.48882417110973353
-0.3739820020378877
-0.321127959510294
-0.19508330710963404
-0.2688791575394363
-0.5619966658120135
-0.4751767137862397
-0.4571138262624393
-0.2762024004382069
-0.11280565377613762
-0.33534870489770613
-0.3892346038772086
-0.21664710733735915
-0.08687468398490461
-0.42682703495689894
-0.5705357659268445
-0.554982671427256
-0.4267404001368504
-0.33865161290960083
-0.1966918323832081
-0.21911078829762928
-0.5150161232761582
-0.6383023484352377
-0.3983757075069701
-0.4045839999999999
-0.2793446873421797
-0.3141350501172473
-0.3655460399256045
-0.5202532037232267
-0.41776508049160205
-0.502161900210787
-0.3135183453930957
-0.33841925625176006
-0.39457674722549446
-0.6364118494028485
-0.49678297571552205
-0.30561872322370925
-0.38962141666666666
-0.7131299796209892
-0.39844870329445287
-0.39221419838809674
-0.5523086982841132
-0.42202416000000004
-0.4844886596404216
-0.6899414740736151
-0.8100500000000002
-0.7512869541405748
-0.508646333853684
-0.6765427603004514
-0.6428739583333328
-0.5827152088722817
-0.55359206344286
-0.48306436070506403
-0.28969030937252077
-0.20383071461045676
-0.2659835341757874
-0.3950908491083547
-0.4865511051547598
-0.4842216
-0.43023621957798547
-0.48708328580285226
-0.3679724623491156
-0.2667310308064677
-0.16382238246901473
-0.23171888888888892
-0.43984090686001576
-0.43199882796326966
-0.3224504145528044
-0.2680573924768161
-0.19122968655492803
-0.28365385368877855
-0.4983818279871895
-0.4248827733588692
-0.41489794875140684
-0.25399559172453606
-0.20202454785154614
-0.33161055199846734
-0.47976557745603876
-0.26936508765521694
-0.20369038997274816
-0.37953165461183397
-0.5219844090431903
-0.5167870604069943
-0.5377572946452566
-0.40603438742693965
-0.23013274030706746
-0.30063601085466646
-0.4742196888888886
-0.5788134914193633
-0.45652439823888596
-0.5470566666666673
-0.27136634475342064
-0.30116530744885234
-0.4392813553544121
-0.492992940001377
-0.5302042700560017
-0.5131482394375516
-0.2245147221325974
-0.3485254882192228
-0.4880253551573776
-0.7253746543387161
-0.37165692887557994
-0.31349477921494445
-0.379802582465278
-0.5909516049570037
-0.40324552157728283
-0.30830318867534595
-0.5416781083361648
-0.29631519999999945
-0.3618035813184535
-0.7530295439546436
-0.7274997127505692
-0.6316380842243571
-0.6725128839826412
-0.5604871419714815
-0.5023651515791563
-0.5247113198849435
-0.46281468588551317
-0.48250863311911574
-0.4963019704010118
-0.41039676072351444
-0.473548665494592
-0.5263764403708067
-0.37426
-0.4188574431148862
-0.546633432740199
-0.6812486414548465
-0.6826526256557147
-0.547966805571701
-0.40274957010147
-0.6539137877343694
-0.5384602505780934
-0.5386987201944781
-0.3941117316003179
-0.560476509526761
-0.5086503118609328
-0.42650657392547003
-0.24594933779798853
-0.24348799999999968
-0.257573475789397
-0.34289570793818247
-0.38080699536860035
-0.3213381611700105
-0.6041246429871361
-0.39818915359414087
-0.37210403166769984
-0.2923685656751369
-0.294681142565204
-0.23823389683179294
-0.2864433333333332
-0.4518048715090896
-0.36152332060785053
-0.33203324068727036
-0.30857223350694407
-0.29833523396780065
-0.3391182295475379
-0.4656152553960042
-0.3999659271284093
-0.39650771647034516
-0.34212147222222167
-0.3153997554722388
-0.4430218676078332
-0.629518340979541
-0.3626442388333934
-0.2987078234287948
-0.41155156933250603
-0.4832370400000001
-0.4840430735409453
-0.6256600677868026
-0.5028691999766276
-0.24709711685209088
-0.35458851976231914
-0.4941252266666663
-0.5442302223599916
-0.5007223356707122
-0.6198619053523454
-0.32319406779470844
-0.2487525458993837
-0.5238442253099761
-0.5477843562719568
-0.6924879584840421
-0.4389253805992261
-0.2555813728276161
-0.35189039981648224
-0.5799997120786758
-0.66240712418519
-0.3654013122545982
-0.3044794780773439
-0.46554514550559206
-0.5385851410737593
-0.3541943106371541
-0.34433060781145386
-0.452323417232992
-0.24989495375077478
-0.2458140367547366
-0.7241531941861271
-0.5796684098003909
-0.4652448752082687
-0.5788177730055992
-0.5004886451488274
-0.47110166179899005
-0.4262601119619645
-0.5748258223003103
-0.4717918838770458
-0.4552320523559598
-0.6573357497826432
-0.3851885416666666
-0.659420136588822
-0.5386537440431505
-0.56674482227733
-0.5608505480471172
-0.6923514652672487
-0.45666670275906024
-0.5128934753613791
-0.3292756848453661
-0.5809920309648148
-0.5333882163628924
-0.3482567179785401
-0.5980543981401115
-0.31604685813564964
-0.6384291934237821
-0.3493558033391038
-0.4367917232479593
-0.4409900023142543
-0.3156260832127849
-0.35734399999999994
-0.36064640560886024
-0.4131357966273044
-0.3290865620848739
-0.29667746614314167
-0.4312794085269705
-0.4222183088839416
-0.3988935218350899
-0.3539769607636885
-0.3888173997063073
-0.4042344174592351
-0.4024826017772269
-0.544623607304876
-0.37954670286022923
-0.37900896308167836
-0.43883437812499987
-0.4471674222157151
-0.4242739614277821
-0.45712849027101427
-0.4008151786732792
-0.4581267181649102
-0.45246775104502085
-0.3980389827598121
-0.6132447656540607
-0.6585269063856166
-0.4953984917524649
-0.3313929672788785
-0.4663674001243638
-0.5041314240000001
-0.46058499524618285
-0.6106832360572872
-0.5136174442388062
-0.33311525088312416
-0.35448818366316365
-0.5502357358820694
-0.5568906539367636
-0.4814843230471962
-0.5373460911345318
-0.33750472652841607
-0.28158682775027294
-0.5408982609804589
-0.6508990897364239
-0.7384817335405743
-0.3850092357842528
-0.27202326292845785
-0.34535383366852
-0.5101855038674739
-0.5254650452968729
-0.32294156751394903
-0.2948993177638916
-0.46796664407192873
-0.41961103938726124
-0.2962668816828798
-0.42530559837844967
-0.33903275736509825
-0.3490806929944204
-0.27647429998589423
-0.5821505321347383
-0.570893077489666
-0.4532817190968152
-0.4965982316598821
-0.44459086223578487
-0.4666103860733623
-0.5701177791849451
-0.465789773465272
-0.3329246633319483
-0.5367159536166691
-0.6529959813529852
-0.360366921884687
-0.411549363096161
-0.6374740571809651
-0.6183423935704904
-0.6656961242955656
-0.5468600479844795
-0.5984858989460632
-0.41040686009506055
-0.6147082588142837
-0.48273623244379965
-0.38038910213552485
-0.5683207614796444
-0.36965675897223876
-0.5074249276588213
-0.5036025113659849
-0.3415662700966386
-0.33180304352242573
-0.6018111209488618
-0.3764510396087905
-0.2736981047996266
-0.4025694535560873
-0.4389643993050178
-0.5060764775851646
-0.4586177423021291
-0.49073354102087247
-0.5094421994637012
-0.5251991090972177
-0.40103471626497256
-0.4672456972514986
-0.3733992746967863
-0.6222828213688455
-0.49463154023558614
-0.4760670323561041
-0.511568456246072
-0.5621123270994063
-0.4837562974443748
-0.6064641988775072
-0.4472620647241156
-0.46517478490461706
-0.5672335487459214
-0.5194248031288707
-0.5499039566026037
-0.45195305221156973
-0.44235343995040277
-0.5416787520258334
-0.4817897671950872
-0.5047217614367968
-0.6775287445753255
-0.5714433714400988
-0.5807773696697237
-0.4140075877306568
-0.4783481108745408
-0.549302947013846
-0.4523591204826403
-0.49835795933702803
-0.4338757618553066
-0.4237326679335005
-0.39753522679940784
-0.5923582259833294
-0.5744144575463849
-0.359700649004612
-0.3790702459185774
-0.29322876145238985
-0.31581426714766003
-0.5013515835503207
-0.7167353395747282
-0.6072761060486158
-0.2935857343252731
-0.24065038144798714
-0.25619780661485253
-0.3317222906216788
-0.31753260907994924
-0.25074903600729664
-0.2588837054888727
-0.33835814183774765
-0.2937777345886331
-0.3024844742835359
-0.4062078802336024
-0.3432398981846174
-0.4306146288489359
-0.3686802549957361
-0.45073767445064394
-0.5256100330551662
-0.466119246842768
-0.465124097273059
-0.503653276031008
-0.4151269250118333
-0.42176861392236714
-0.5449801898714312
-0.5074283508690093
-0.3928504
-0.3484563092899485
-0.4643967159460925
-0.617036163006576
-0.4633738139071983
-0.40496201101613766
-0.5754397512261958
-0.628451348376042
-0.6316647473838966
-0.5589007275370808
-0.6519405021698699
-0.4141046666666662
-0.5058325559552609
-0.5207088690810356
-0.3726903176393668
-0.3581459502348776
-0.539592532293334
-0.4931843769373838
-0.5246160443507547
-0.4655676422855895
-0.47158534603620167
-0.254759741121739
-0.3436451946045354
-0.2493356993833595
-0.4803281140886324
-0.4888124949697695
-0.5235644496527775
-0.5700009301916525
-0.5532408229368813
-0.5346993519322173
-0.6100000429675068
-0.5810116764108993
-0.5340756501343248
-0.6293986749328385
-0.5399144443652517
-0.7361129027459565
-0.5769745066666663
-0.5330650036750632
-0.5979805462722251
-0.5962726133434338
-0.5853813333333331
-0.58238939078322
-0.47224778308741433
-0.540781496938104
-0.5740248059710172
-0.5899921988963971
-0.686030520079907
-0.41862920658636477
-0.48747996993894865
-0.5524089216511924
-0.5264615451388882
-0.670619489803983
-0.6140460429608989
-0.47025646416950645
-0.5745279671577669
-0.5751634672836891
-0.5015499669353166
-0.5809635525769786
-0.43575562396218
-0.3699097633069348
-0.31689014131869775
-0.4558448405327405
-0.4605758124739156
-0.5798384799999997
-0.5901671482992278
-0.2448087022173088
-0.24517979018087901
-0.20060246155990724
-0.31419211042028733
-0.392343376262313
-0.6433677813597853
-0.3545404233914175
-0.2085647765229481
-0.19697632271298496
-0.1660849289161552
-0.19455284209484855
-0.16539821507783478
-0.2522755881790044
-0.21107308861809396
-0.19324019854785804
-0.31087744082625585
-0.30603908487605386
-0.2921107036805291
-0.35699623787731666
-0.4071051118139537
-0.4309560454959781
-0.4728211111111111
-0.48149465882010584
-0.47628022171970086
-0.41455076978715694
-0.3706235660976864
-0.4246934345939244
-0.44464556382172665
-0.416087772579172
-0.4741899084275117
-0.4362066404820457
-0.3397516539979744
-0.3421777877660675
-0.44865580210775485
-0.5371463725398867
-0.45752413014792387
-0.3626952913825177
-0.5840326739539387
-0.5965642891335373
-0.6652723547858503
-0.5268419948320407
-0.6320466666666669
-0.4981803999999999
-0.48768231797796896
-0.520799746822698
-0.4465670824852476
-0.2368039893923711
-0.35338327583079016
-0.5146970663160122
-0.5376349861987725
-0.4758190379050924
-0.575446531395947
-0.37578317847195497
-0.18532665968390138
-0.33601716317135116
-0.6492960864460389
-0.5455201756561275
-0.5518480609374999
-0.5654044856663775
-0.5021950405089769
-0.6244639999999998
-0.5703055288127099
-0.5736117235853281
-0.5706396792312459
-0.6449196000000001
-0.6534224577344555
-0.6482229296686652
-0.5672139680000002
-0.5254416882435392
-0.5673859490946925
-0.6302306916733831
-0.7569888888888894
-0.5063521606943582
-0.4549863457228012
-0.5414658571194605
-0.5679803265625
-0.7651523673714019
-0.7291387572246258
-0.3681572375430428
-0.5135658930701932
-0.5352934457532547
-0.6804993185763895
-0.7883772515038783
-0.5229824797301373
-0.43522843806261086
-0.4977842796864322
-0.6998112309215861
-0.5567387686849904
-0.5725635039999998
-0.43943441552705104
-0.2839426294522812
-0.29794745282338925
-0.4223958553115874
-0.48809807282402673
-0.48707986666666575
-0.5633403558586485
-0.19655932151073588
-0.27651
-0.19716217488400167
-0.3320830297509641
-0.28546496753385964
-0.43565174209547314
-0.16570920542297377
-0.2550651557302359
-0.2153906063123775
-0.13119832264609024
-0.26009533263066525
-0.21196639158123576
-0.2940022533721052
-0.17501742827331068
-0.21181927083333332
-0.3422544444699063
-0.28895961211675747
-0.23898833539987605
-0.34965278969039254
-0.3411116
-0.4013192870427774
-0.4909339999999999
-0.43971617393100665
-0.4839348532938265
-0.3826357427522205
-0.23782039637783267
-0.30973660740523346
-0.37550026203761194
-0.3680918277104836
-0.46753757271228896
-0.40328382327707324
-0.29194175308948117
-0.2589639101053935
-0.41116928358758575
-0.5741686052975367
-0.49854766980273807
-0.3372618369497839
-0.582699684492102
-0.6743487072080366
-0.6717889786512908
-0.5259253883204125
-0.579388
-0.419529271957015
-0.4504320717134765
-0.484107109109507
-0.5069671991370389
-0.24811415006984297
-0.20500069684627456
-0.373827231027878
-0.4426131189325602
-0.4662436085069442
-0.5758194857266133
-0.4888341547024351
-0.2016847180379162
-0.43897429279272754
-0.6316717715781501
-0.5460368764207483
-0.5087980471898246
-0.4653296328119209
-0.53598215065096
-0.809458000000001
-0.551311625938863
-0.5189177733272535
-0.5420537287118882
-0.5903295200000004
-0.5741266970887045
-0.5233380901012605
-0.526905055466005
-0.495507467338759
-0.5314705258347433
-0.7638668792857594
-0.8469421244058685
-0.44902409421166894
-0.4437046859064056
-0.515710581209874
-0.6609523098958335
-0.9066814461558602
-0.6579401022547869
-0.36508402847268906
-0.5241564929530894
-0.549349561066336
-0.8027181575085814
-0.7520745146471007
-0.5224973220137273
-0.40594331741956596
-0.4946255557313481
-0.6913746470423927
-0.5738009443655883
-0.49934746666666635
-0.47559768842686095
-0.304927418728171
-0.32823042283445675
-0.44669590090561734
-0.49971852600716454
-0.3753075539023218
-0.44263293449059654
-0.22981514654509724
-0.2703288417690057
-0.4121899663748892
-0.303054791180488
-0.24718825967298128
-0.18453386780067635
-0.36573064344221246
-0.2886071007916558
-0.1316932807973777
-0.2974598718262556
-0.3438062269134204
-0.1385601472736137
-0.3403982260306952
-0.25444056419286193
-0.3232140580612264
-0.34836582868361127
-0.3586367504689509
-0.4561314131586567
-0.41262090880619323
-0.24930489501796593
-0.24993319703504271
-0.27271371545731676
-0.3145096837331394
-0.47821646062590456
-0.5113870485194454
-0.39063861004339756
-0.2597393376647457
-0.4215107151383362
-0.6432425149292089
-0.6782657470705519
-0.3910973986325384
-0.6052170637000157
-0.7612236588541667
-0.6279903568727139
-0.5200389521797747
-0.4892989512295923
-0.22482370965075524
-0.33436979733125854
-0.4507251862035672
-0.5185615060599154
-0.3349855260775947
-0.222181555114105
-0.34484413742508885
-0.3282273633705808
-0.44877138816550927
-0.5640093400059724
-0.5144784743542056
-0.3147007471428935
-0.45598311351942983
-0.5849876548212442
-0.5658289642392247
-0.47957135256105987
-0.4235951134189709
-0.7265709158228287
-0.9112347485017568
-0.6468833117697224
-0.49096627486389893
-0.5236383408749332
-0.6007852092030036
-0.4775957526439385
-0.514399329936884
-0.5001802876792727
-0.4793963045183874
-0.5788910392758809
-0.8682729241159602
-0.7587358069849138
-0.43792550873770875
-0.46077750507956233
-0.5122006111424144
-0.7347071848630051
-0.851646787625654
-0.5982100455275708
-0.43669532656332427
-0.48406411105600294
-0.5415480768223465
-0.7579268976633541
-0.6829310709539556
-0.49830748340950753
-0.33914234035957835
-0.4959633820220047
-0.6576555711392446
-0.5371910456558596
-0.39354290784046353
-0.4408138060160005
-0.2700155937809145
-0.49640067214986044
-0.5367825778429154
-0.34561784484397595
-0.28040360154751204
-0.21883474780645026
-0.48924373713754177
-0.37414455364918625
-0.22576576704093745
-0.2485473769073702
-0.4263648795515121
-0.2567615732424096
-0.30378344573460175
-0.35016539718950135
-0.35955703292708396
-0.22332072948956452
-0.3153116123597995
-0.468830989409776
-0.48143432876545783
-0.4348716642649448
-0.3520362168624502
-0.3165487363010396
-0.37566190261290516
-0.5472736293389331
-0.659669733345293
-0.6577012648894414
-0.36826690062991707
-0.5212151535025319
-0.7048614930614767
-0.8539092312461248
-0.40573058796320716
-0.6231428746875789
-0.7414577421875
-0.5409004112483978
-0.40549193724192995
-0.3648097974788185
-0.1922492
-0.301040159989511
-0.486753655682069
-0.5675608515208309
-0.4523985676379409
-0.42442357582664764
-0.5244375177378268
-0.3284558393452786
-0.4904034575846601
-0.624372077004356
-0.5559180035213883
-0.4571729670528439
-0.47096946922497734
-0.6413825347939978
-0.6027497648818728
-0.4826889755208334
-0.5013517726539726
-0.8740648484304749
-0.8196940942343458
-0.7580595212821977
-0.49648640556160123
-0.4988171786732796
-0.6234186464834335
-0.5189313194845954
-0.5552427936682485
-0.4730237600000002
-0.44573857317506344
-0.6377407335478577
-0.8118596684395575
-0.6100798312323475
-0.4653318849349039
-0.42892565046497216
-0.4981519008713575
-0.683881928303885
-0.7220856205319796
-0.5096190998569444
-0.4439788299057294
-0.391763473443202
-0.4878072796808634
-0.6778081398676261
-0.5758272055211857
-0.3438040452572846
-0.33311860838396207
-0.5924552590977291
-0.5117808439203612
-0.33842869894606326
-0.31030162881872986
-0.3564647967240456
-0.5125180584293644
-0.34263788098091913
-0.23551519721043637
-0.40090351877126684
-0.3383943947051822
-0.2535908252398014
-0.18989852560908485
-0.4062090765034097
-0.33226217466077884
-0.26578000000000074
-0.4056558666936792
-0.5691256755756348
-0.5847419219399703
-0.6600014106322117
-0.6246859052898256
-0.41415717958255777
-0.4876605326820547
-0.666842204461545
-0.734370404192037
-0.907525199999999
-0.40875630068195884
-0.5414677948907903
-0.728648606173802
-0.8391851190328582
-0.3386740272783629
-0.5253005572986709
-0.6373077390314474
-0.4309562061252234
-0.29911084341085287
-0.346896
-0.37433466666666776
-0.37339837906875856
-0.5828555612923146
-0.6666288304798781
-0.5689367748873734
-0.6866861764062745
-0.7371704877296942
-0.4074600877095093
-0.5185739565972226
-0.692381020353304
-0.6445146474565068
-0.5778664181293581
-0.5366286158383758
-0.7088390812165016
-0.5633653186608806
-0.42604728906249956
-0.6437460893664325
-0.8468959319082517
-0.6354815354412058
-0.7781380704582418
-0.534079797822672
-0.3750504910105387
-0.568514933333334
-0.6122874251057111
-0.5643096635668531
-0.3744494399999994
-0.4142038962547361
-0.645587064978434
-0.6976793699208755
-0.47302748148148227
-0.44447676131432085
-0.36233465441328616
-0.4646763080238418
-0.6265357965631346
-0.5859127010390445
-0.34617205001033285
-0.3663349939730364
-0.32697773889242304
-0.4493884638412044
-0.5868560967292032
-0.3633528252450721
-0.38715347228680175
-0.43009445603855084
-0.3191735879644551
-0.26233017393786534
-0.35760212063920044
-0.2261107394866503
-0.3013851649443132
-0.25419843595784164
-0.15640746012891607
-0.17623801567446287
-0.4077988888888901
-0.4826751173418901
-0.6643805088401039
-0.682345493161126
-0.7537509644155026
-0.9062520810084715
-0.4446731693876147
-0.47721322302221064
-0.7062810656279019
-0.7139296509505756
-0.9182570400000002
-0.38382849349039044
-0.43221104605324073
-0.6594971256131715
-0.6732247602307629
-0.3448205982641043
-0.3845908818763706
-0.5295683465048527
-0.37360423237646473
-0.3675455917312665
-0.48038333333333405
-0.6310899768547206
-0.412445130165816
-0.5921702850241312
-0.7487457143426254
-0.6331456698605197
-0.816790576885415
-0.8461819968663632
-0.5545745680373192
-0.4007148596643511
-0.6543940215663521
-0.7256439832029149
-0.6077025392336584
-0.6048690940551562
-0.6807455712337253
-0.3699672056898801
-0.4111986837952913
-0.7761839809610777
-0.7059532303883111
-0.49815167793281717
-0.7343107458666046
-0.621468033080506
-0.29263026427839406
-0.41444386666666605
-0.651185660793611
-0.5178585017565612
-0.31172328286009504
-0.4443483429680384
-0.6436992720856707
-0.6174542365835145
-0.3690566666666664
-0.4128825777799641
-0.3497646616298373
-0.44391342246881393
-0.5944843100150732
-0.4234284964969924
-0.358436643458206
-0.3202797743954297
-0.39486654188254083
-0.41856581597222187
-0.2916034790245919
-0.2424837266935406
-0.3735272711309095
-0.1372554666666666
-0.30508789127947844
-0.12971233477991262
-0.5887206702486726
-0.412155496135332
-0.6243688009515789
-0.7438774698771816
-0.6813983691031461
-0.9769431394916304
-0.5024619746692859
-0.36540430412311253
-0.6017025664213184
-0.6643567939632772
-0.7090540575325468
-0.4409341646612995
-0.3793557073979041
-0.49721393394083807
-0.5466340684200511
-0.4661340453241187
-0.4071623281836067
-0.41000323958333335
-0.4583700324467322
-0.5142760286885241
-0.5897232010746019
-0.8434490161190329
-0.47801259494269094
-0.41135582069369714
-0.7312397657722496
-0.6692470085294743
-0.7223265320958737
-0.8428300760411035
-0.747325989960054
-0.32050093888935477
-0.4447652282261269
-0.7301888272039677
-0.5696674026008604
-0.6182962730334631
-0.5192775284700683
-0.24395700336535983
-0.5499080679650367
-0.8386745661304892
-0.5964345304378252
-0.414078
-0.6975909754641932
-0.7009932177553874
-0.39578432082517706
-0.3283710488392922
-0.5891881973017412
-0.47703962581783615
-0.38172391293242397
-0.4826339980600112
-0.6447278911095267
-0.49983924248248507
-0.45197537188428333
-0.3623389313332239
-0.4289660123219756
-0.48324033333333344
-0.4418095379819827
-0.32808731614354336
-0.3241115220086796
-0.22487144000000012
-0.491155691535658
-0.3306085753254805
-0.7763186887786729
-0.36328699674863096
-0.4358060433847484
-0.7022531659775842
-0.5907424482338203
-0.780205899719254
-0.6665362621265255
-0.33392843753754753
-0.463768386701977
-0.543250949081927
-0.5361691785906185
-0.6317705660321881
-0.45597596941666124
-0.41209648518204545
-0.4243895238685678
-0.6244704113739534
-0.5598399407245859
-0.37785403645833343
-0.59243158994699
-0.585616521581274
-0.5527194048357098
-0.9580970076462082
-0.6338769523559087
-0.2645450916357639
-0.5353652175269966
-0.6393652022897283
-0.5558847324077549
-0.7965979587761572
-0.8811319022755177
-0.45023421336972363
-0.28018037245833577
-0.5589701430874138
-0.48882500519620736
-0.49953719596679463
-0.39028831994335816
-0.365526707184932
-0.6983514396402715
-0.8436055582205245
-0.5037876420748094
-0.581748222832623
-0.7296470448732594
-0.5075377203563552
-0.4170902892333128
-0.5037946929660257
-0.49598382973405136
-0.42151756004133084
-0.5007274892416939
-0.5496748088219313
-0.4725302234158119
-0.39462619155211853
-0.4082557743234832
-0.5366759104744235
-0.3829847873527595
-0.5630965868651938
-0.9152020940965766
-0.4961668185347677
-0.3018357648273282
-0.5239028138614524
-0.483994957097675
-0.5619257286997176
-0.836042302852193
-0.49319095687399245
-0.43233155662558614
-0.3795578213635658
-0.42404624
-0.8076015440769985
-0.5849540483815899
-0.5006112587904715
-0.3032804980367842
-0.7153869774641787
-0.6236948342034642
-0.4933198851669586
-0.5693609628334818
-0.554659562827223
-0.4208064693118405
-0.969761382118863
-0.7800894563480668
-0.3771158842881495
-0.3600950327944324
-0.4486923299579786
-0.42035496546912926
-0.6923362915891702
-0.9311537992802411
-0.6272810906613983
-0.3818207451488636
-0.40669933625585825
-0.3131932860217183
-0.4070161546929875
-0.4602220766453899
-0.5293643544914383
-0.7710702816324826
-0.738847542242821
-0.662393066866378
-0.5603268730798695
-0.4951402144382458
-0.5063666330478654
-0.4886631324029492
-0.432010912190181
-0.5186346013078021
-0.4716494381488905
-0.4795964778673278
-0.6010183860269689
-0.9594397219638237
-0.6814491449590228
-0.4190287915835824
-0.4121918243673222
-0.2918111484857881
-0.45461698574085563
-0.8726633458366114
-0.6833084042992099
-0.5334846348343926
-0.3766453226925552
-0.26483013333333266
-0.7707511390972256
-0.6581766898967927
-0.5996090387529255
-0.3484195432639606
-0.6179170406908125
-0.5430785482603219
-0.5472863562856799
-0.39901115780542057
-0.4262177893154408
-0.2780055937984502
-0.849692
-0.8635413560351185
-0.5860996574647149
-0.4565896232808841
-0.33555244729642647
-0.24621675130819562
-0.8481636774753553
-0.7375606885564706
-0.5855770631115838
-0.5122515052435096
-0.2508667809551733
-0.5080343453498114
-0.5995934567729706
-0.6252453406381077
-0.7341915286458335
-0.5852174035957843
-0.5259095474935407
-0.5494445524327709
-0.4743392805607754
-0.48595831999999994
-0.49285299814011163
-0.8724099999999997
-0.7561325851872583
-0.6177405519693676
-0.5261418735567661
-0.23107203395565215
-0.3126039532961347
-0.7770777908658822
-0.678470224173557
-0.6245429817263148
-0.5335019792216756
-0.21908958627815642
-0.6072388406695596
-0.5778563873441803
-0.5646447972685196
-0.48293682313648917
-0.47311947613143157
-0.40670586812438875
-0.4321561016596374
-0.2414529372982659
-0.3663340630490961
-0.28717
-0.8144362890859113
-0.6852369299116847
-0.6634341831863947
-0.5065053569316232
-0.16833350028790753
-0.7088495052083329
-0.6971753150050192
-0.7192433989078082
-0.44750237582714397
-0.6687386989484353
-0.685961883446129
-0.6169745680925814
-0.5301445333333338
-0.6007700374083961
-0.4975332010746025
-0.686037588271156