<?xml version="1.0" encoding="UTF-8"?>
<VTKFile type="UnstructuredGrid" version="0.1" byte_order="LittleEndian">
<UnstructuredGrid>
<Piece NumberOfPoints="1536" NumberOfCells="6750">
<PointData>
<DataArray type="Float64" Name="f" Format="ascii">
-0.26583665715998095
-0.34972
-0.34659925463313074
-0.4045647053960776
-0.37161110174220346
-0.47558589846872934
-0.5277885272279575
-0.5045928255208333
-0.6123997147025547
-0.673873310826033
-0.6815157315561067
-0.7483847970568994
-0.7045933984334632
-0.76053
-0.7831933426416181
-0.6698188117041372
-0.7273238561686299
-0.7441416199378046
-0.3105775673796152
-0.29795758421161345
-0.4023926773220519
-0.4456775226109955
-0.4118628352965489
-0.6061488917007861
-0.6323133981981536
-0.7238226384974354
-0.512549186959279
-0.7351945276752544
-0.7089404059516431
-0.640588133722263
-0.7237269156482303
-0.6424160812015468
-0.7106036304526526
-0.6911768179303365
-0.692774423517256
-0.6501324565978001
-0.2658491098126662
-0.39642546187228767
-0.42947343761993784
-0.373713319765184
-0.43294937252058685
-0.5509677559445391
-0.5124121524154931
-0.4429176906385618
-0.6497451100989248
-0.6362923830651377
-0.7397212429678608
-0.6290469890886549
-0.6653601107689124
-0.5590373359857443
-0.7133367508066611
-0.5614850570765507
-0.7045748167586603
-0.6727525756467633
-0.6612914044606392
-0.6468083795431864
-0.6763532311669483
-0.5976900953955926
-0.6059655372597642
-0.5514679841792257
-0.32183073976737514
-0.46289609423434613
-0.43540641976177513
-0.3121866556131826
-0.4263691391659811
-0.44809550516205116
-0.48957980329611844
-0.453194185107405
-0.5667362765277986
-0.4900901985001997
-0.6021549364543707
-0.5041860074395537
-0.6173058492808771
-0.6327602616731324
-0.5135104672039673
-0.6373657413719243
-0.48336133123783587
-0.6663049746636461
-0.6959988249483939
-0.650579058658101
-0.5895552704372687
-0.6327353977236944
-0.6803635295525493
-0.7443654920120591
-0.5808225172895585
-0.5890063817738622
-0.6991335104365531
-0.5007606212487034
-0.6015565441620172
-0.5470711410877244
-0.4703743305518359
-0.4806
-0.4538822836712339
-0.5198507355742686
-0.43176680989583316
-0.2838972481293815
-0.45901719588159745
-0.3951553130353062
-0.5459926107249674
-0.43735283529654895
-0.5950192419319112
-0.5204160347808332
-0.5276876998379331
-0.5478464430850033
-0.4834373333333331
-0.7169728347819517
-0.4444133333333341
-0.5980956738161595
-0.5781153377934204
-0.5571682003463558
-0.5312628373630911
-0.5276390018467986
-0.5874704461084881
-0.622895171070232
-0.7750501067558039
-0.5979176305619285
-0.5484741256378457
-0.5956441760141277
-0.7310922239162115
-0.6790149826388897
-0.5255663975595481
-0.6391328544491975
-0.6687329334573263
-0.5400307798231053
-0.6328432
-0.608504354205414
-0.6251230949773003
-0.493112
-0.4821808317936637
-0.6432995376883904
-0.4687668541666667
-0.38231006689529856
-0.5962857359202137
-0.4419887724736516
-0.5120209350055659
-0.3678662831442761
-0.5803200711725164
-0.4064725096596664
-0.6022148334554253
-0.5351111649725074
-0.47892167999999996
-0.5800232392309236
-0.6287442431722033
-0.4908293841279879
-0.6002026349824855
-0.529478240833282
-0.5973843261004338
-0.7129185721438631
-0.333296
-0.6703462152473301
-0.541257836619634
-0.5875702986739154
-0.5462237001454906
-0.551462638942689
-0.559248823088445
-0.6888009813691682
-0.7599366200663801
-0.4613965473370945
-0.5191923343952262
-0.6715836551666547
-0.7409433286164426
-0.5207232135416665
-0.592600604103087
-0.7112142704114744
-0.559580476751395
-0.6591218898014486
-0.6026144000000001
-0.623626
-0.6863406671626678
-0.5297800878280639
-0.48603919303917303
-0.6698246949157549
-0.44013074644167133
-0.5680795663704618
-0.6043746487883506
-0.3984890743211634
-0.6898557618261072
-0.3637873210835914
-0.5204848225525834
-0.4270463152717499
-0.7202088592464689
-0.4663384422613442
-0.4652988617520108
-0.5905079203692231
-0.4661851576662385
-0.5647468571634771
-0.6548109614268429
-0.4984315560923389
-0.5438649920291407
-0.5028490196540397
-0.6738770335217468
-0.521193502311352
-0.5751142735329347
-0.5977372362609352
-0.5574873511720462
-0.6416137034170132
-0.3269236608803474
-0.7226057849718402
-0.5770131244169309
-0.560800519850174
-0.5710346450705484
-0.5375727276649601
-0.5973715650434763
-0.7572546838773716
-0.6750602127054193
-0.40800246847132254
-0.5524230335980664
-0.7756704129090032
-0.6822876289264014
-0.40943481863128106
-0.7260928841823046
-0.7040243232603806
-0.429892181503238
-0.6876010543279324
-0.49137040570365714
-0.5568624769928967
-0.6625302867059429
-0.5181028373630918
-0.431538058172901
-0.6964854170283122
-0.6172825590502596
-0.3317221275285554
-0.554019516246783
-0.31349534206630214
-0.7471803153545404
-0.4757482041744155
-0.4930267443385626
-0.4032663106013637
-0.7138960267391247
-0.6120170326222373
-0.41294949367611894
-0.47279039102544834
-0.5036942407845073
-0.6112068119685747
-0.6903791582659552
-0.4441396926940016
-0.4599874974168217
-0.5567142091341191
-0.48740547690677277
-0.505410693459765
-0.6500162196515779
-0.5189565375242821
-0.5148033600786367
-0.44602202206667135
-0.6767340643722087
-0.5587830349049282
-0.5220452214666959
-0.5773440014465799
-0.4966384030406496
-0.5877476086522256
-0.39965445959909035
-0.7326117025809183
-0.6453008616531671
-0.5155313892273038
-0.5510154385823649
-0.5073872884591232
-0.69152923149411
-0.7873600292771316
-0.598663615688555
-0.4393966930242144
-0.6543733556053585
-0.8248087084273609
-0.5955534605910752
-0.3777891365470762
-0.764599961692218
-0.6212199066563467
-0.33398203889674066
-0.6207379437336915
-0.35156272870427824
-0.42208899284615015
-0.5700689055193972
-0.43970600000000004
-0.3924045328290657
-0.508766532742822
-0.2969560442708334
-0.7117292118897435
-0.5986134445133293
-0.7160589212285084
-0.43887396063772877
-0.3008095976441414
-0.43357772874757045
-0.4376262400000001
-0.6592995698541914
-0.702745734855105
-0.45659419852586586
-0.4841094843865719
-0.5182371531308122
-0.5505435138464568
-0.727669255159899
-0.5245993142462969
-0.3611616029482679
-0.5132268930754439
-0.4403119206896667
-0.6356415475119043
-0.5818171053522367
-0.3687832604406716
-0.4266431890886547
-0.4859518364870208
-0.492747773008744
-0.4432257923531823
-0.5557525684317515
-0.4907521837073774
-0.397339100007338
-0.45463454533035225
-0.6435998196795425
-0.5882655070932467
-0.5149013756514207
-0.4942426300199762
-0.42600112086545744
-0.5704042061952314
-0.4433579999999999
-0.7019474247079333
-0.7160892011179704
-0.547908246331886
-0.49157571916731363
-0.5421399858519331
-0.7781295085926844
-0.7484229095109306
-0.5325359088862084
-0.4938094757269515
-0.6986999111535265
-0.7702389341486878
-0.4752754238483112
-0.44797308593749996
-0.6899268542756571
-0.47167943932757334
-0.3837683812771235
-0.4886030343450829
-0.35737367999999986
-0.37539954494730315
-0.44548736974807296
-0.38365666666666665
-0.4359198505797015
-0.6006648894148782
-0.4160835212982386
-0.3958714019097229
-0.34473661040112424
-0.367311347385824
-0.6012140787155928
-0.6497974941671094
-0.5264368952262862
-0.7293486480150482
-0.5527777595466289
-0.3615027202354659
-0.44264946666666655
-0.4626380911286087
-0.48645354825377135
-0.48498031048143336
-0.7181212693505631
-0.6072028776595584
-0.3697033333333338
-0.48963121778070745
-0.42986225149511803
-0.5762759424484186
-0.6507177763930856
-0.38788933026088307
-0.2695551275056825
-0.39773684609506527
-0.3786499634500598
-0.584471886580758
-0.45739575665509286
-0.2935720063322889
-0.4135401134769587
-0.4411586462836547
-0.5151064913082645
-0.4118954360663356
-0.4886316404904599
-0.44119280019838797
-0.28574760008544725
-0.5082778423543514
-0.5855396688409761
-0.6038242173597772
-0.5604481467074897
-0.4711520888888891
-0.3882706723466481
-0.6247160639987528
-0.4678866666666668
-0.6003479870411077
-0.7059525791097765
-0.6233975451126259
-0.47454879933870675
-0.561668286001306
-0.7298903507888922
-0.595161419914808
-0.5811107473987938
-0.5264274303015274
-0.6077520185870638
-0.606074784339942
-0.48798816914502535
-0.5390445138888893
-0.5762334430808337
-0.4393716588290247
-0.5251726400082667
-0.4351165740496545
-0.5091096000000005
-0.47091342219466886
-0.372270245796047
-0.4464003368464552
-0.5873075588059119
-0.3975211024128141
-0.565107498450093
-0.7462814940436636
-0.4739068999595902
-0.6332556375284151
-0.7814723528887538
-0.5419740082460035
-0.5672785364341091
-0.6350897514041113
-0.5353408706425035
-0.41605
-0.4338378826957654
-0.4521079856159712
-0.44074378735275926
-0.41667157190486465
-0.6215239732646406
-0.5425026968756652
-0.46569366799253936
-0.3677867549490312
-0.5631662752483645
-0.3357564520145883
-0.5361209738375688
-0.42631750384812855
-0.6028130539657789
-0.5940893233522611
-0.4483206666666674
-0.6760965147491205
-0.5839766464133652
-0.3923603044818738
-0.3741895062420342
-0.5178677413816004
-0.3768218384221495
-0.3931435982806371
-0.4631612036898502
-0.6999587105158258
-0.47429212362824785
-0.24514199999999967
-0.3836614336709632
-0.32398516848565984
-0.5787663368539989
-0.5302458914930562
-0.2662121427656184
-0.3227143922064827
-0.2747505678849738
-0.37357326218026615
-0.5177596265757388
-0.37570118489583315
-0.3622043069053287
-0.44984336263775376
-0.4897539586691464
-0.5377912042056274
-0.4477011652643725
-0.4735937073775573
-0.42636170666666656
-0.295763881989077
-0.5149766333932666
-0.6002618782143702
-0.5651653437456882
-0.5517325040477611
-0.4880214933333337
-0.396173389543294
-0.6388296597501864
-0.5369809299442028
-0.5709259141978477
-0.5862393639375495
-0.564837862654839
-0.44859255176689433
-0.4476076084242315
-0.5789433084792056
-0.5172311297055324
-0.6489918280082653
-0.5374014024914927
-0.5082613953855013
-0.5054205549163052
-0.5865739726114785
-0.5328039860298491
-0.5199492680596675
-0.5219096250783615
-0.5420213838123218
-0.49404642185522457
-0.5475695665220089
-0.5161529018256426
-0.38101418233794865
-0.5221011118505475
-0.8722059379076582
-0.4313809682717575
-0.6642222570179181
-0.9351506690687531
-0.45696758504598195
-0.7265690055041412
-0.7563439950998613
-0.44664444487438715
-0.6451933100780706
-0.5541516927083333
-0.5160814998872878
-0.4551072717986348
-0.4302864951436249
-0.383432946683199
-0.43602532932552945
-0.5412145453347245
-0.8612867248581643
-0.561557766256131
-0.4294352706376136
-0.398297123145224
-0.4845684181650884
-0.7846072178549289
-0.4330171801349827
-0.6784880684180649
-0.33654629259415
-0.41467877305567385
-0.6038679327489214
-0.5978976369084529
-0.3504432
-0.6145718692903722
-0.5952678429895376
-0.35573020617299256
-0.30859984859130657
-0.38320638441588933
-0.3020982504975994
-0.30186056508369496
-0.47635583589792313
-0.6366072303067637
-0.3715647253766506
-0.3110055748432879
-0.2879917249471417
-0.3248477599040332
-0.5633007704283769
-0.4423878302083335
-0.35110397830701695
-0.5130088132004281
-0.2972895733155546
-0.4137502535234551
-0.46503344922504647
-0.41257458681613984
-0.5358328071941395
-0.5338611711097334
-0.49189647757801175
-0.570599361686929
-0.5189911608368606
-0.45385639445924414
-0.410985264
-0.37039103459201955
-0.49451589177735483
-0.5922214439263204
-0.5344496443213665
-0.490643473874158
-0.4332963142798098
-0.37557494383136997
-0.5525448522004015
-0.5886805393676379
-0.5814647354789506
-0.4976869952820559
-0.4358909083479397
-0.35344860365197656
-0.3499981996832164
-0.47799692835709867
-0.5157800413966208
-0.5532589063817249
-0.508264678124415
-0.4803502962653487
-0.4680066983949854
-0.5111285366351092
-0.43613404994736776
-0.5061435281503556
-0.4729914808607618
-0.41352060114003203
-0.4918580830719836
-0.4195741536267823
-0.4438828415608764
-0.3817901146931187
-0.5063852142630356
-0.7836293738670258
-0.9945783399217997
-0.5100349252412485
-0.5739015381600544
-0.8879549710582456
-0.8750559259280627
-0.5174003804305841
-0.5927961637315312
-0.7833819030162066
-0.7264263174209546
-0.42240532305968187
-0.570918126068331
-0.6442737807444193
-0.5228450544465897
-0.4122865323170428
-0.42798662120272785
-0.4621483694978314
-0.42472613135792936
-0.4899898922563346
-0.7744044685384764
-0.9582361169663157
-0.726812361025004
-0.45179162173282367
-0.41344975757005825
-0.4189389140348496
-0.682835780974589
-0.8325756761854474
-0.5597993992402369
-0.35895247439937883
-0.36614844772345306
-0.41658936060954427
-0.701814383402766
-0.564553372390991
-0.3761824255011372
-0.5597051797510578
-0.6570343120381672
-0.3582146352162703
-0.3137048930357515
-0.336242607919568
-0.2945840498977171
-0.3005736625253154
-0.5424388318541903
-0.5669232334536675
-0.44631262329852267
-0.5384608707033125
-0.2956684446200516
-0.40261610639939366
-0.5184948489955622
-0.48066259306142217
-0.5802705914600194
-0.6564584542260803
-0.3846167260606573
-0.41752552597644166
-0.4547456343897813
-0.5321202600646179
-0.6427819063364043
-0.523256227526348
-0.41623887071920057
-0.5460908824447922
-0.5649078580721093
-0.4337500270306473
-0.39483226535234556
-0.384609856156587
-0.5146542453144128
-0.4807162166885223
-0.5076089949014514
-0.46568968368662483
-0.3529286351725567
-0.34775394621915584
-0.47962552612827364
-0.5132009216780321
-0.47276722413488753
-0.44163801074256237
-0.3819423142467447
-0.2994967147807253
-0.35454510085791574
-0.3968372819177511
-0.40900962384002243
-0.40805355315975983
-0.41430042898960723
-0.449085390312642
-0.3814054746279177
-0.3379302535112992
-0.3496862224528243
-0.48341060466211755
-0.32309296010858196
-0.3324520852908153
-0.4012231272066454
-0.3437377556519942
-0.39254756968816207
-0.42838751326031593
-0.5505755495674424
-0.6308129293996722
-0.9345305948074586
-0.9156809874108535
-0.49203625011802793
-0.589438098754115
-0.7201400945764633
-0.882185220505367
-0.8080564
-0.47968363975946043
-0.5386885088641927
-0.7024177757712912
-0.7832494007668155
-0.38453743249795647
-0.5283541024071764
-0.645482288136323
-0.5386596240764893
-0.389991171423826
-0.4604637735069228
-0.7078586666666656
-0.4057065026845177
-0.5353103522664883
-0.6156900208049051
-0.8661070432118155
-0.8391015933293929
-0.7999418797272152
-0.6376890893835108
-0.38424989542433013
-0.4753138942146234
-0.5609134011763152
-0.726408953089524
-0.49046562301373403
-0.4062508468053843
-0.37083844386155085
-0.5371761857638883
-0.7543378209900099
-0.5185710253238603
-0.5030384837776394
-0.5729373280705624
-0.672303559937541
-0.4299090537301092
-0.3392231247502932
-0.37439101877221664
-0.30631060609744976
-0.33649221333333307
-0.5567524189942822
-0.55952441573082
-0.6218773578556949
-0.6700020000000003
-0.3209122955156024
-0.4367105311593307
-0.4889670265388584
-0.601442551941796
-0.6771980605947884
-0.6305377901770337
-0.40349188394152863
-0.4068727702857344
-0.4840355179084563
-0.5814068081597218
-0.6024858414445887
-0.40298942292020096
-0.4235766939762912
-0.43590010135995155
-0.5422785954882633
-0.42463543418061583
-0.39495631793345765
-0.37176659187275746
-0.4686020212126048
-0.4254522848430467
-0.41628872522915134
-0.45083476985381005
-0.31719776
-0.3630441906691178
-0.411431310538165
-0.37852904599483267
-0.3769130316468879
-0.3466862861741411
-0.3654278692842874
-0.3120172362058274
-0.37117141144010507
-0.32197669946084145
-0.3140751073322916
-0.3537621462051553
-0.3222553049465048
-0.43358932576969406
-0.3294935618394892
-0.2989212480478178
-0.3472964700823642
-0.4597042224997206
-0.284775701912988
-0.41591592560894863
-0.3412998861414906
-0.46492551652713104
-0.4879420844129811
-0.5360177777777765
-0.49677157081091333
-0.6262676102353306
-0.7622179392232588
-0.8812090823464339
-0.7646630192188467
-0.41825001377695165
-0.5512575379003551
-0.6595184132394466
-0.7752758964989915
-0.8238098869283069
-0.3880696889853276
-0.5253270048548556
-0.6611066419974825
-0.7269957445219647
-0.3224102448853065
-0.5454177637637301
-0.6564602464150325
-0.6080530435293274
-0.2960446391042209
-0.37706000000000073
-0.8529928
-0.46863750862834935
-0.49337314374679897
-0.6128920418331085
-0.7242346899723024
-0.7879161545287873
-0.6983873598329727
-0.7762096146816296
-0.39531031828703617
-0.4784236642588748
-0.5620754147656846
-0.6309532537343114
-0.4931418491689916
-0.43796892813842253
-0.3414023410484257
-0.6291585916666663
-0.7041419920983389
-0.49392607367963487
-0.5499251999999999
-0.6414264145993056
-0.619905645499756
-0.4793545062616242
-0.28953573333333354
-0.38434700514693304
-0.25773590204587743
-0.3649984
-0.5096659484717793
-0.6401954892068552
-0.6280709127658253
-0.645851111111111
-0.326391534283943
-0.42343726358516487
-0.526116368657343
-0.5907535177083331
-0.586056603633207
-0.48381210607176334
-0.3823511283966082
-0.42569916104123345
-0.45390943868567907
-0.5141208984375004
-0.47286971254925564
-0.3599055912803943
-0.4558311901477206
-0.3786751811498838
-0.45825539199596527
-0.4218691561617421
-0.3631982560000002
-0.38399250694453596
-0.33537554051613133
-0.43333484702120706
-0.35061687697186916
-0.40939961564542204
-0.34560395555555606
-0.3722927583384998
-0.32535872755153156
-0.33152999999999994
-0.4116837576416998
-0.3007092085496916
-0.3614835346371732
-0.35591307363780406
-0.39943901854125324
-0.3267095435841154
-0.38568903255874903
-0.383340994226333
-0.3290116541633083
-0.45747285038165025
-0.3873508709658999
-0.4268001963299362
-0.44082585937499996
-0.42639797164048004
-0.43461482913405125
-0.602423853068816
-0.4331713591685296
-0.6844096
-0.6646841971481711
-0.6277453333333319
-0.3950532652886995
-0.6007835192773107
-0.7083172012930793
-0.7683892757404146
-0.7704108963791887
-0.4246335689191989
-0.44351461783393925
-0.6534674722469327
-0.7121437254810403
-0.7271379948749744
-0.4265962920024799
-0.4669655758154215
-0.6780679278868895
-0.6782322801553482
-0.3795916846455874
-0.4722883207961826
-0.7134371855383989
-0.5382617205034418
-0.2495966534366931
-0.26351800000000003
-0.7869987720603424
-0.5581319450265559
-0.37442802400310876
-0.6036795404298356
-0.685174726228066
-0.7024789188867743
-0.5467228761950046
-0.7501825391171768
-0.4398557664930547
-0.3617692192410456
-0.5647897079454781
-0.6107237237796276
-0.48596559350005225
-0.3426576332300062
-0.33337472866294626
-0.6190103468699951
-0.6550882414971008
-0.4510952194668318
-0.5366146666666668
-0.598077655271828
-0.6291823730598192
-0.4929781747563548
-0.264908133333333
-0.30953722557656377
-0.2453316995246951
-0.4169434320066134
-0.5223146844070978
-0.622152253101429
-0.4744340238907138
-0.5512837411310884
-0.36612668065817294
-0.4370975679509208
-0.5083408728096793
-0.4254703368055548
-0.4618958422447364
-0.3586291297216113
-0.3864206617640615
-0.41251173415168435
-0.3728437203967759
-0.4302698110889398
-0.3718169116864003
-0.40192241413470375
-0.40601851981782383
-0.4020125920285604
-0.36519577625182387
-0.42804424110288086
-0.3527948266666669
-0.3979950882482904
-0.2620140634881271
-0.41458964421564853
-0.39860883305116346
-0.3427415524359069
-0.40783537623475913
-0.40063524777846676
-0.3130167991686084
-0.5005518145822704
-0.3916848158232273
-0.34817153093821945
-0.4149496899374571
-0.4182431903518739
-0.41046778609344936
-0.550406618548268
-0.4711874305617452
-0.45361639888297334
-0.5266438366622347
-0.605855123396199
-0.46532855932602407
-0.6398311481596297
-0.6075623956719788
-0.6744812619687258
-0.3882578242260742
-0.48023180450479463
-0.6918925215429383
-0.7031563008453472
-0.6829363102943936
-0.542864119452531
-0.4369903915586503
-0.5794458589664461
-0.6948784225503032
-0.6378009656540609
-0.5663072091731952
-0.45578118432943054
-0.6025047502431456
-0.6842760476128616
-0.5126741096524665
-0.37087271397660015
-0.6375338064236119
-0.3895285558931116
-0.326694162680163
-0.2808404029758218
-0.6400407526348425
-0.6278507685983086
-0.3302084832696152
-0.4866574314370346
-0.6618479955743873
-0.6752650140829831
-0.4540318319900803
-0.6844431328411406
-0.5086893802807159
-0.28264209820151837
-0.4794383308534827
-0.5909980939971178
-0.4388258783344465
-0.2643954317999582
-0.4078992270459915
-0.6305678733125926
-0.6122097472890188
-0.4535992219466832
-0.5378559272576978
-0.4642838938518244
-0.6340802070802224
-0.5520401898146988
-0.35747212754701424
-0.27053599117318466
-0.3217666271360842
-0.49793186501343234
-0.5319575737302192
-0.4510308740372277
-0.3938982142951841
-0.4052251281256454
-0.43240411007869367
-0.44964003127918956
-0.3994585277520153
-0.33037030317203536
-0.374261434563584
-0.3063661264203525
-0.41862577556846864
-0.39504391725563154
-0.3531945538529105
-0.36417739229088103
-0.3453841994159139
-0.4292418991328529
-0.32811600640628175
-0.4238340928921012
-0.35331393892395196
-0.38296182923266175
-0.39332942151684214
-0.45425080976913174
-0.39603926965923125
-0.48844331003374064
-0.3491354095853547
-0.39001481310188013
-0.4346817986874827
-0.5739418713283886
-0.5383522750183456
-0.3691101750887185
-0.39822556270560533
-0.41595247235925653
-0.5209250017791617
-0.6834302186925513
-0.4605767076729117
-0.6650536042157472
-0.5884366337397109
-0.692726147275608
-0.5145934286339299
-0.4238005360652059
-0.6154556956321521
-0.6620006589482421
-0.6085663842716245
-0.6716445441795774
-0.558785152432158
-0.5118271391552794
-0.6419415624898478
-0.6112312856375283
-0.6229467917552763
-0.5246641326898446
-0.47481353923315045
-0.6449679241578842
-0.5117647702246046
-0.3658525950167386
-0.4718250312499999
-0.3420082595627952
-0.3709228413485826
-0.3607855249018389
-0.557126
-0.6940870909908466
-0.4265777656553158
-0.3969978966101524
-0.6114834734311502
-0.6472951456756968
-0.48046121926017776
-0.6592014948229893
-0.6190508857615383
-0.3448340844748649
-0.3891252342219467
-0.5688069151328712
-0.39563586838839276
-0.3036255684234337
-0.550560677018426
-0.6501349302083331
-0.5641062044659061
-0.5075569781180075
-0.4565610644761315
-0.41866612612249493
-0.5453863300623832
-0.5888023916924984
-0.49803241275745574
-0.293189207493659
-0.419197565928967
-0.54380832
-0.4681575377126949
-0.355057602421983
-0.3853812699404297
-0.2536764954880478
-0.4969100972101676
-0.4625303254115862
-0.35921207817932976
-0.3451404650051986
-0.3219200424149689
-0.32814597156757586
-0.5062012514329463
-0.4228078609262221
-0.368351101661408
-0.34900657486606934
-0.3538519086733824
-0.4192849535027898
-0.4274325798497598
-0.3978440229282392
-0.35787067046412546
-0.38803160166150025
-0.4896129605720328
-0.5368715045883706
-0.43825521128020806
-0.36814351448646404
-0.37597118333679885
-0.6204428206991092
-0.4527954633912293
-0.3810786529504862
-0.43837784806474084
-0.602788437817731
-0.5234475514255877
-0.6801900000000005
-0.6626861201687292
-0.4932981110475723
-0.5355760569400411
-0.6429896037071487
-0.5905299884091684
-0.6795770229386243
-0.6189044042019759
-0.5037233087698537
-0.5596169477199949
-0.6242758666666666
-0.5091517278363298
-0.4981464149224492
-0.3908354159551088
-0.5401852579045255
-0.33011402727836264
-0.36216885340094174
-0.35688954019560004
-0.37577399466010947
-0.28834375896640824
-0.38133
-0.5590966666666669
-0.7052132516171702
-0.5727940715737566
-0.4066254974334031
-0.5488118181194467
-0.6305594897198844
-0.5443019994532774
-0.638339253063839
-0.6584547708333335
-0.4886043134904556
-0.3504750992466794
-0.5426647073269514
-0.3585497873956393
-0.4210895508009014
-0.6255093238272376
-0.6037134036458327
-0.5363251701825967
-0.48717089858156787
-0.3102757348625742
-0.42445287731208964
-0.480297369941214
-0.5514415866914651
-0.5974531200000004
-0.35861315158258483
-0.5395662583178343
-0.5591368266666664
-0.45933966048850955
-0.37402449434653445
-0.37141187417582855
-0.21817647200689075
-0.5717070006199629
-0.5129874873528907
-0.385657581254037
-0.3976842661007358
-0.30173859344660303
-0.4204452324860507
-0.5486834341853619
-0.40871422578537947
-0.3981344998337672
-0.36716497618387506
-0.39487910566775036
-0.4238899472412729
-0.40420653185097594
-0.38353601771440377
-0.3896219894742847
-0.48043430766720613
-0.4394612610508179
-0.36035020448535865
-0.5012357547427151
-0.46491581757501016
-0.4659315755344409
-0.6109677777777776
-0.6595309690610415
-0.541095657151453
-0.4737098396348009
-0.6192021231875967
-0.6171396548873734
-0.5616234373493147
-0.4893352423619442
-0.44387103031810043
-0.4473609763298481
-0.6004875199999998
-0.37761966212027226
-0.2980006049761838
-0.32082687765616646
-0.4067401605910561
-0.2385929152028652
-0.26187842233510406
-0.32088356451299566
-0.3997710635501271
-0.2860142952627046
-0.41419000000000034
-0.5746427162636908
-0.625152982205964
-0.5895594084774539
-0.45891468283460074
-0.45933783467650907
-0.623063490947806
-0.5342020203795314
-0.594610496278129
-0.59301128761574
-0.5742607688385614
-0.39190225800080586
-0.4857394364180125
-0.3686675323769238
-0.5649600259888407
-0.6098293710821796
-0.5631054457220414
-0.49634226138957577
-0.4297499573421651
-0.25213322521963827
-0.4376540709894952
-0.46603493872455864
-0.56014747504371
-0.648149333333334
-0.5187935791112384
-0.6513915602397197
-0.587082614407935
-0.48398272929386005
-0.4324367402079918
-0.3502596041995006
-0.37079333333333353
-0.5573269859768494
-0.486353162615538
-0.4113944356221022
-0.4200423653733314
-0.3712947543761754
-0.40870500707503626
-0.37126118925446483
-0.426365296861386
-0.3902051475694443
-0.42532737342426125
-0.44264605463979295
-0.3284066676665404
-0.48018279999999974
-0.495154080145971
-0.525211632568712
-0.5313474250878282
-0.5303182881256253
-0.44797814576068135
-0.41272191657543383
-0.5137531510391286
-0.6251215189088654
-0.4554864408186215
-0.35254123515246577
-0.2784887884519541
-0.33455451946007836
-0.4874909805744982
-0.39253952382141993
-0.1923033087926527
-0.23325828672965113
-0.30549775074958646
-0.39713244280226995
-0.23705927470543917
-0.3590621770833334
-0.43064802653605333
-0.47924656190694187
-0.5352276379417227
-0.5437911326720396
-0.5287951082074703
-0.5130871248740706
-0.47403146432100646
-0.4024017976087039
-0.5636063521206998
-0.5254039215090022
-0.5334226312141138
-0.5438426352527066
-0.5957461623862677
-0.4876234994172351
-0.4350240127846972
-0.449889655309522
-0.6755605451264036
-0.6113781742537477
-0.5533622834949431
-0.4895515996986936
-0.4170646064315943
-0.380674
-0.43915569774257546
-0.4730285445154791
-0.5909199277036126
-0.6440743940759114
-0.6801841146000626
-0.5922518308436395
-0.5423612500929947
-0.4546057122180092
-0.4416225992880259
-0.40474359414718825
-0.37735115263076763
-0.38777368957657443
-0.395165094248034
-0.4311630546874999
-0.29224717399203465
-0.37630837984306825
-0.42802068629882223
-0.4752930399999998
-0.4315342622985919
-0.5936733304401736
-0.4861616584004957
-0.43642940126056984
-0.3692957358062419
-0.3375088185929771
-0.3858194171785858
-0.5598882628082401
-0.4555945435791315
-0.38106381611105894
-0.21058092876069442
-0.27087982421827833
-0.3458484464558799
-0.5226732970644205
-0.3479080080490036
-0.23695068516634346
-0.3301605759454432
-0.6172466402103086
-0.40357986930169143
-0.4384789843750004
-0.5032099395531456
-0.6569048965924473
-0.6214431990080594
-0.5197328497623477
-0.4939077284122552
-0.48172252365158075
-0.48759834341845876
-0.3847140273527583
-0.4641900950979769
-0.5366569259296635
-0.5076461598413933
-0.5562797124411248
-0.6064740376660646
-0.5672007796238893
-0.3835137656918553
-0.5344267278679752
-0.6730072895338352
-0.6226399827918366
-0.5325827618581337
-0.48589404059384317
-0.47363877867327997
-0.44782372933692743
-0.42532368476966737
-0.5335003969310234
-0.5657966977887997
-0.635067975149591
-0.38907194108956916
-0.435890646414548
-0.3607929789662964
-0.41649650828150797
-0.27560797120523256
-0.33819007080216584
-0.37315021062079895
-0.3685085313786219
-0.4015077657367219
-0.5274286637988737
-0.46714590066818196
-0.47656252159405815
-0.43059587234181135
-0.32506076843486037
-0.32828913700051676
-0.4313951551002421
-0.5005296985117517
-0.5428124556076271
-0.36888346700678737
-0.31198672769225944
-0.33663912
-0.6354426903685536
-0.5956576570426688
-0.3948053167469963
-0.4562320252118211
-0.7230356477165693
-0.5862003061571069
-0.4947465171060221
-0.5323225286573761
-0.6760136009324541
-0.5618630967141967
-0.51482304248062
-0.51158076904581
-0.5427316630941518
-0.5477102049220531
-0.4005295697044839
-0.37376543068383333
-0.5188522380657162
-0.49204187356174717
-0.5634617789295345
-0.6238193806930377
-0.5964311115776991
-0.365064514201256
-0.5370939032935899
-0.6058241973945931
-0.563046472746363
-0.45006312867571124
-0.4361020495297967
-0.3334054889889337
-0.40423546739671745
-0.47322574019425495
-0.47740888561736633
-0.32467480294304935
-0.3938400715906976
-0.2906119994674779
-0.3926055057814168
-0.36090064732382704
-0.47154165788610236
-0.4566525529715762
-0.5872943167465325
-0.5903841521743322
-0.4574961779277386
-0.3836152605133509
-0.37406785740855547
-0.5141153164047704
-0.7102017593690954
-0.6204331052661627
-0.464170713012893
-0.47679186666666745
-0.6517940452460708
-0.7562208027578801
-0.5753320652027978
-0.5303412451835652
-0.7112978073544358
-0.6504355729710053
-0.47547258374341267
-0.4694953292590957
-0.6152098264061597
-0.4461999452196388
-0.46364999999999995
-0.5162429339183668
-0.6288210141818845
-0.6500972701552432
-0.4921483200344661
-0.375583654280974
-0.42051158720317444
-0.5122037898157128
-0.6152035625578058
-0.6334737041391066
-0.4290587039680715
-0.5295920188482192
-0.56137249728579
-0.4591331396866442
-0.3264581041666666
-0.3050385889646621
-0.45020867966236017
-0.45616190622933345
-0.45229238771672625
-0.41602319999999976
-0.5042336788592685
-0.40881999999999996
-0.631747686566044
-0.7448256657210184
-0.6640217113547959
-0.514659672187669
-0.4525960921678038
-0.4768797788799332
-0.7588565725690645
-0.8017621753292602
-0.6200553243846856
-0.5616242936970447
-0.6023215809051458
-0.7814301491732608
-0.6726354245762987
-0.48533134616197676
-0.6602647964455467
-0.6301873811220026
-0.42598476039137273
-0.39503257052187307
-0.5732087824289412
-0.40285
-0.4644092683985371
-0.6433207063416861
-0.7320437697081528
-0.6411143173255579
-0.4720310894322149
-0.42885121527777853
-0.5717444751433941
-0.6861878877059548
-0.5552297887639597
-0.5899119567194365
-0.5525532559095835
-0.3879984934903911
-0.457055066666667
-0.5490538937206055
-0.5179297106840256
-0.6083289404478611
-0.8039242120823479
-0.8142562164670544
-0.6269306282049437
-0.5235513726340294
-0.7517896688661015