<?xml version="1.0" encoding="UTF-8"?>
<VTKFile type="UnstructuredGrid" version="0.1" byte_order="LittleEndian">
<UnstructuredGrid>
<Piece NumberOfPoints="1536" NumberOfCells="6750">
<PointData>
<DataArray type="Float64" Name="f" Format="ascii">
-0.6280531748196827
-0.64426
-0.5729092246993213
-0.5413677946555889
-0.6008406615413231
-0.5550072863697134
-0.4507545608303021
-0.49339682291666664
-0.47480315650542754
-0.3340610965299135
-0.4372985957842529
-0.427297918802157
-0.3399435769524866
-0.49879399999999996
-0.5211596240643142
-0.43302693486031674
-0.5773341103533788
-0.6472280877849745
-0.4894526974186289
-0.5432456881587109
-0.5130026475488602
-0.5001654785761894
-0.47229666046703855
-0.442748171211984
-0.46217932260712397
-0.3202211520792835
-0.5332134003486895
-0.42132510118885963
-0.27766653349865633
-0.4516376504876289
-0.462666597920626
-0.35588359561962124
-0.3632813650161361
-0.56126898385148
-0.41433981781359824
-0.5383978000000519
-0.43769587251994585
-0.48862607873527586
-0.4950575070989756
-0.39282071892951204
-0.4599528015940641
-0.5235931076160171
-0.4403128860020924
-0.469339163050217
-0.4762367479253717
-0.479314978702952
-0.4353264690389185
-0.41064652002479846
-0.44259153256024314
-0.5290060695772849
-0.4136369044205494
-0.3906115123575536
-0.4331414169369269
-0.4519973320126835
-0.4701962024176058
-0.4722810674771322
-0.3488145407288274
-0.5609090509815333
-0.34590902281463104
-0.4343533584841697
-0.4452625070406138
-0.5196589026658404
-0.5285304598952411
-0.32681355155505093
-0.45863433966146677
-0.6133873719739145
-0.41337032796284606
-0.37850902226925237
-0.5230002756853428
-0.6579496878566092
-0.4695567399765364
-0.399069832610043
-0.46724142881126157
-0.530849441640319
-0.5986038145071305
-0.4820410706145744
-0.4801804206484133
-0.5066425490971328
-0.4864180310191433
-0.43527285824095036
-0.43631692546740686
-0.5002813120498222
-0.46883335883392435
-0.4410831868455946
-0.5239582555463126
-0.4728550589500416
-0.4301235472858406
-0.5335085200244801
-0.43586779756148003
-0.4851751194475763
-0.4673807777343472
-0.6086333333333329
-0.5950062117924233
-0.46463491239306737
-0.6709530859374998
-0.37162672960237186
-0.3557582347484858
-0.40170341087472505
-0.5524364416394173
-0.7641193841702828
-0.3966727874451544
-0.43002243023208336
-0.5087939847293801
-0.6246447112245727
-0.7637229333333327
-0.4707620433932658
-0.32641666666666674
-0.5471337606564416
-0.5714132791436358
-0.5944823670401574
-0.6386860405042354
-0.4661079236866002
-0.536961412836753
-0.5949805812596819
-0.5568296316315208
-0.3065255955111913
-0.46584641743647554
-0.5669331270101865
-0.5711406254815407
-0.3621001736111116
-0.5571498156555851
-0.5364759213487459
-0.45028846559206487
-0.5337127544168954
-0.5066607999999999
-0.5504899896672865
-0.5035491293115911
-0.6622600000000001
-0.6018542255564511
-0.5124887755070623
-0.6487156119791667
-0.4123851634347417
-0.6081004450796219
-0.7949764711717296
-0.4263151882063061
-0.39428316091186416
-0.4089497753214575
-0.4603322155220207
-0.5227199942422268
-0.7228233398539584
-0.8915015200000002
-0.350079448818898
-0.5171865307698428
-0.5791096576923619
-0.5965174634789284
-0.7465151360820044
-0.8112062988220706
-0.39594991481207137
-0.37092400000000003
-0.6611378529040199
-0.6258331175782756
-0.5662041029808568
-0.62916216158715
-0.4426282356579539
-0.5644695505589468
-0.676392150966795
-0.5220016224414378
-0.29565288077376156
-0.4858166394157453
-0.5708721533925997
-0.603357375255587
-0.31510133593749995
-0.4972419052706352
-0.5792180488864087
-0.4088407706137633
-0.5258066400239525
-0.49588656
-0.5705808357098574
-0.5757909071444808
-0.6199465819384166
-0.5242603259933587
-0.5574840865186222
-0.5683053015443635
-0.4329642226355305
-0.6357086844975144
-0.7596936025319055
-0.47482150808592044
-0.4316865620147932
-0.8000327765963459
-0.9029306332300061
-0.5771879794096466
-0.4827592370625487
-0.44850660651976937
-0.41818046566094874
-0.5367910135348368
-0.569488558946452
-0.6544240897222232
-0.9090733816306024
-0.8381707100886614
-0.396578662698659
-0.49339232348986056
-0.6495379980083001
-0.5953049458020431
-0.6493513644554659
-0.8455774596027675
-0.35754009089041644
-0.46342994730316217
-0.6246637049020123
-0.6304456530199211
-0.5283869152146098
-0.5631310200803114
-0.42811615427705346
-0.4842171317767252
-0.6387024827694172
-0.4376543913082394
-0.3528026623787927
-0.3792549376268681
-0.5015805476751408
-0.555410877057931
-0.3368463375482195
-0.37690999173169554
-0.5737827942248951
-0.4204024797330203
-0.5186353543068253
-0.5385268780739825
-0.6486705363056191
-0.5830801303750449
-0.5389966253358134
-0.48026807313659686
-0.5241592359991732
-0.5114016057405736
-0.5613859596924619
-0.5655278485162379
-0.7280974055610497
-0.540749276433017
-0.45198610043397375
-0.7781769137040085
-0.8193738831990084
-0.614531272787131
-0.5116971209311582
-0.46519225377255086
-0.9621426893485948
-0.7535980605484197
-0.7047922814724017
-0.5962097871218872
-0.5154992419335437
-0.4758501332920024
-0.4669571134531925
-0.5031407702284763
-0.58481464597077
-0.6137380398688991
-0.7598341541144874
-0.9444781922663789
-0.4781279315339217
-0.42129296209759043
-0.5706185713059481
-0.5566217993339292
-0.5717050403389125
-0.7527482158500626
-0.37886189433487677
-0.48229995763587535
-0.4753904503292479
-0.5146014473168711
-0.43365753983022004
-0.5226596844166405
-0.34039029298962115
-0.32624683277536737
-0.5271032729071391
-0.39953472346754165
-0.36891032044371386
-0.19564610071006885
-0.45011663923124706
-0.5203448997739014
-0.3463917464613147
-0.3301539573034102
-0.59269668472109
-0.41762574623970616
-0.5918402507006587
-0.544804004050424
-0.6644461037611977
-0.5108892668409741
-0.5866399999999999
-0.5486642591605183
-0.4561882176789756
-0.5975106406249999
-0.5445015381463103
-0.54689784066956
-0.49269312574178015
-0.518877999969734
-0.6698880210787354
-0.7012172919833506
-0.7064432800000001
-0.5174476432752523
-0.575673431386715
-0.48510926431080775
-0.8581193294260753
-0.6842132448853069
-0.647389995645392
-0.6307343732547398
-0.5306428314089952
-0.4759611414204035
-0.8721897260586128
-0.7990641222143395
-0.6431603796970449
-0.5957567427027004
-0.45926974183288466
-0.5087729578425294
-0.5077037977989419
-0.41420451744046555
-0.49098798626269397
-0.5848075891892094
-0.6459991134531929
-0.8721919877034102
-0.48265654578421296
-0.3899487144848284
-0.4046368877560573
-0.4352832234010791
-0.520070005538333
-0.6771512291171894
-0.4025140117486951
-0.4528340000000001
-0.3826752994679616
-0.3775668294202906
-0.2886680584969357
-0.4757680066314694
-0.19033580782280693
-0.25246118080595176
-0.4604288727510734
-0.3888608802275489
-0.36543189906379814
-0.1390345795883494
-0.4638949134737355
-0.4661560761164438
-0.33237919010416667
-0.40649646412481966
-0.5655940074893492
-0.3586025275883448
-0.6349158540568373
-0.45022856000000017
-0.53864940483571
-0.5287136857420378
-0.7140900000000004
-0.6162978070556143
-0.4544686451744741
-0.49729265999576694
-0.5460914713541661
-0.5368223250351112
-0.5398363473858229
-0.40583298485940555
-0.5742137535660029
-0.5674222508782806
-0.552208110872744
-0.4208034316329356
-0.6197648571238594
-0.5910334666666665
-0.6970068481038291
-0.627521272990287
-0.5478597454247004
-0.5569715974798347
-0.6205689220958511
-0.47523111111111116
-0.7335963256740564
-0.7185833161949658
-0.5871773990555765
-0.6793890017980003
-0.48761148242296487
-0.48253757263897484
-0.8350257229627348
-0.6624027982777231
-0.6704062309012321
-0.5406086299189815
-0.38798568363539226
-0.4897277460274782
-0.4385515497179258
-0.3623646213713654
-0.37804284635901025
-0.524995382654818
-0.6390209948832406
-0.7645242186287663
-0.4792948131109593
-0.3754525902736045
-0.33210769483942504
-0.34339659933824573
-0.4475327111111103
-0.6320933658983556
-0.4342724486513869
-0.4477000000000001
-0.3624421070378176
-0.3470312335118655
-0.24024002142591525
-0.3846193428394287
-0.1536668183921537
-0.29770161247104093
-0.4134203038090997
-0.37594764193249225
-0.354970035960072
-0.23698954818298287
-0.45422029937240666
-0.3714562742875109
-0.29610516059027764
-0.47756589599127636
-0.45262983421993513
-0.30503555280016525
-0.5392160464026915
-0.3956014666666667
-0.4766375366811325
-0.6603438518610375
-0.7345122132672042
-0.5934470362282783
-0.7600694395433933
-0.649328927464352
-0.5225933863126251
-0.7531092137571961
-0.56523268960529
-0.4776976918818952
-0.6787146591542221
-0.5564495989664082
-0.5097017045854617
-0.6025164755476374
-0.61781
-0.5824856829313659
-0.5566005117076899
-0.452251390163257
-0.574225342652163
-0.476962219628281
-0.4696118558145767
-0.42950863109119025
-0.5165952529856211
-0.4847485156144404
-0.5234804509710789
-0.5744457439966933
-0.42772942546131304
-0.4470556561014776
-0.6075463496182787
-0.5439080000000002
-0.6621593654375938
-0.4343520169811032
-0.4825976801571041
-0.5902936152630521
-0.6139284478727101
-0.6512466525281865
-0.5763431547509819
-0.4896682659844072
-0.6972626871620983
-0.6289564625622589
-0.4526873333333334
-0.6729139665796621
-0.6133357001692571
-0.6904281915452853
-0.7051244201388888
-0.442099512100357
-0.4618148436145217
-0.7503787349559959
-0.685246337769247
-0.7040075094027695
-0.4946406866319433
-0.3826306583239732
-0.3629135324398524
-0.3770162291795834
-0.3312907652486797
-0.37832612762306533
-0.5010431159330432
-0.64548744
-0.6941372139581564
-0.5055658771984209
-0.3865872307449225
-0.3416258342498424
-0.3674453720249959
-0.43800917333333217
-0.5713971241992152
-0.44322321092929556
-0.4838368733209339
-0.3592147751639241
-0.35127044443134453
-0.29841614616194784
-0.36300590204587607
-0.24181045167525048
-0.32159405552581083
-0.3546062634757996
-0.3387908624706108
-0.37870397510021686
-0.32199080518905465
-0.4006892125893786
-0.30334363154692573
-0.31299871986560973
-0.4531661456286094
-0.38183753943276777
-0.3376533401197412
-0.46002927110528186
-0.4572659892539776
-0.5852346769435196
-0.584543385685749
-0.6177763949413495
-0.42602667377847947
-0.7115832780865209
-0.5965914572558275
-0.3890581632310393
-0.7551023809028274
-0.5439356320670731
-0.4326406212841834
-0.7122469308985327
-0.5407384331906324
-0.4927126692708334
-0.5621206488637602
-0.5951602111716131
-0.4995895722256665
-0.41808747551146924
-0.5246987615100257
-0.5016488170109265
-0.476036452905696
-0.5183654870790698
-0.4029639292400234
-0.45763088638401345
-0.5078918364766932
-0.5972690517048977
-0.6083315850879175
-0.6266316090955807
-0.4464182253982241
-0.38264438409601653
-0.5696454086438417
-0.6111155555555559
-0.5065288
-0.7375475583466247
-0.5941626716434816
-0.4276227649408923
-0.5008293508300615
-0.6734797360849091
-0.5752968486385825
-0.5238429158834473
-0.623141839493112
-0.7995412906648771
-0.6014625391282779
-0.45938592202245615
-0.6262314263460745
-0.6631694752600766
-0.7887852981886768
-0.6892243786458336
-0.48128575444823324
-0.3739057443623515
-0.6904643370415701
-0.7325998669973135
-0.7108593072535645
-0.545407974581435
-0.397946009533155
-0.2572453905765654
-0.3969382596266456
-0.3276646831261301
-0.4347279661411126
-0.5592761353112047
-0.6543719679999999
-0.6388571124302568
-0.5105947640202118
-0.40659864815018504
-0.3618972856712713
-0.4071936884488247
-0.4981649700626842
-0.5514309175449473
-0.4137333541307135
-0.4957397892126472
-0.3512195746137612
-0.3410086007964195
-0.32315920662506586
-0.4288525867810189
-0.30550545278146485
-0.30811793512709235
-0.3408416060900403
-0.32349740485824524
-0.45882773564938345
-0.3279692389443491
-0.4056980209134124
-0.33748093623302994
-0.4377515733130232
-0.4435634445990833
-0.4488755232886578
-0.4463128165951706
-0.558453859680208
-0.5284747603223805
-0.6645591167567144
-0.47108945856581946
-0.5993848081885974
-0.47575625323196197
-0.4404891295752363
-0.5280133362217524
-0.6096906333157812
-0.418896213679865
-0.4622547273698358
-0.5775308156018079
-0.5859087785367039
-0.42758199025816174
-0.4704546807191568
-0.5926565211803967
-0.5650457011668054
-0.4692393608532616
-0.5534408851566412
-0.527072057553374
-0.47850774023558584
-0.4086755143624717
-0.43101754430142064
-0.4889696992276798
-0.5113301003609417
-0.5809361052283527
-0.5772466057036578
-0.44188037099997857
-0.3903530479001988
-0.4709801377540157
-0.6348638160224741
-0.6374435185105468
-0.6908022260714447
-0.5414150580524933
-0.4074419166709264
-0.479868054091755
-0.6823270553014207
-0.5908993506922922
-0.5093066697664809
-0.7311027658393693
-0.7214659358985198
-0.5517627440965497
-0.47001908241372153
-0.6162680382114142
-0.5285066592473554
-0.6142128305517676
-0.7253780073527757
-0.7792578045537667
-0.6231946376526843
-0.4342267507060687
-0.6393162606631615
-0.6978504552455749
-0.7655731213539066
-0.7190897853018234
-0.5263168652455849
-0.2886299677619348
-0.627784279593146
-0.7071398082083072
-0.7564976173329895
-0.6155682430530427
-0.4008234054875637
-0.25141210994007024
-0.3866900391566928
-0.3360572911967088
-0.46809071036920163
-0.613557858992925
-0.7120316339326309
-0.5951372395016621
-0.49436066656834227
-0.3545583285471822
-0.3673525526107324
-0.41211516615784677
-0.5249832866845754
-0.6125106292831279
-0.40581237179826
-0.495614217813598
-0.32797421315022485
-0.3646891340116412
-0.30486914990700603
-0.4631174838299111
-0.3051591795484794
-0.36243176639801633
-0.3904387931163378
-0.37205352493601224
-0.548151489623577
-0.35714542421393564
-0.49893874524080334
-0.4136153712336677
-0.5640089956642971
-0.555428984989178
-0.5130063259518282
-0.5139821890320908
-0.646767204986232
-0.5016283530068193
-0.5795900221080343
-0.35751423227939627
-0.4555060084223866
-0.4902020628330928
-0.44641725961277406
-0.5946082065943151
-0.3560470310251725
-0.4803657287233332
-0.4677621154036106
-0.4104063393585336
-0.5590288
-0.40692817175672863
-0.5178584816104964
-0.45861271479125126
-0.42038135276659866
-0.43556735645738603
-0.5257663376200868
-0.4552867531466341
-0.5341647294655533
-0.4056588314345167
-0.39557311634635206
-0.4589819999999997
-0.36920795408367385
-0.3974970233961422
-0.49447160641088667
-0.5803996164590175
-0.6744007909443779
-0.6183387710270719
-0.51107772327278
-0.4249739798391902
-0.4042285653900486
-0.565583153819165
-0.6604509618747286
-0.6213710791410876
-0.46311432918013345
-0.5083606594711779
-0.5716150729166665
-0.7180559221248082
-0.5673795254411519
-0.49899167989253984
-0.7117776158135274
-0.7049759620902445
-0.6336042316594344
-0.5721153324791627
-0.513611488559092
-0.5848977611211622
-0.6462657600000002
-0.6573883677477393
-0.7535030566075563
-0.6406760151179469
-0.382035333333333
-0.6107145025831787
-0.6094057244058694
-0.7537599017264789
-0.7642869727506975
-0.5164033932254526
-0.26798851346697017
-0.5400869661877492
-0.7199178812024303
-0.8167011568815935
-0.6239351779513881
-0.3794136842720584
-0.23052957696410944
-0.34621838959665613
-0.2703003058287748
-0.45012199729824687
-0.5975338693945017
-0.7631642471006405
-0.620587762713246
-0.5155643862143393
-0.2860623957181197
-0.32273626085180324
-0.41574932782977053
-0.4817401866666658
-0.6473107622580382
-0.4548871361966776
-0.568286090956072
-0.31981159885632776
-0.40241353699560106
-0.33426820767376236
-0.4306621967348618
-0.30556620506321336
-0.4703667756750369
-0.43019809063506514
-0.4228647639409864
-0.599525464957065
-0.4665630995112488
-0.5332060414917309
-0.3898089435672151
-0.56657890417205
-0.6185361224079504
-0.39836428558756504
-0.4779100100773596
-0.5030822158195869
-0.4343101293643414
-0.4651400623999773
-0.35482222222222154
-0.343742927129403
-0.41071467274300466
-0.4552417226490674
-0.5429628194636015
-0.6368148667079975
-0.3493999876007434
-0.3755809786556092
-0.4548566173274053
-0.3835783838244556
-0.5312669853142367
-0.39883141558173124
-0.41782330945057145
-0.46320462844004767
-0.34718422163823964
-0.3987492543225181
-0.4143834302800264
-0.44903603420773924
-0.4223722952139675
-0.3484380971576229
-0.32556
-0.5341872
-0.3802211905401584
-0.3859228615236192
-0.4159358911683
-0.497493951166683
-0.67089105901829
-0.5990420459037249
-0.5548810463388923
-0.4833213845486111
-0.4473511459840669
-0.438140840567168
-0.5365611557585492
-0.4497435577127024
-0.5005454808067905
-0.593628455259351
-0.5498130057291667
-0.706861878645089
-0.5294379144612764
-0.4482488
-0.6833964247307911
-0.6721304530105408
-0.5529259327960324
-0.6483509777777777
-0.5038710979179812
-0.6325727471240615
-0.5523227520000001
-0.6022451627073747
-0.7642749619719456
-0.5914586840349682
-0.36604222222222177
-0.530734756850589
-0.5537822536555926
-0.8096023539115828
-0.7354778776041669
-0.46343192276162287
-0.23406361775861897
-0.49115639708993436
-0.7940996371591013
-0.7833579975201489
-0.5529780208333327
-0.284492544867135
-0.1982231854778422
-0.3855192725907525
-0.20317659998770396
-0.35296379477513784
-0.5323758159399313
-0.7115821120000002
-0.678000862505261
-0.586712584259989
-0.31857874126734836
-0.2987122333383736
-0.3993406314698811
-0.4378357777777768
-0.5973340007439554
-0.5219285002038112
-0.64905
-0.3422472249889099
-0.4327685472052576
-0.40284992829299265
-0.3801971082179505
-0.3419395534580487
-0.5170724777904572
-0.3741990891441926
-0.42219416103710894
-0.6099886738173477
-0.5348848965681554
-0.38238569722675736
-0.2909465191061828
-0.5086124999999999
-0.4545599565216963
-0.23637440878124613
-0.4364062089274644
-0.3117392541596045
-0.45896280000000006
-0.5093738065716057
-0.4307706666666666
-0.3645512353350238
-0.3830053593024145
-0.43926535548874485
-0.41229082896279207
-0.6695195656306413
-0.44946503368464524
-0.40698444482271445
-0.41802950436882136
-0.3950437678102758
-0.39094478995660337
-0.5020014773713577
-0.40487274679118995
-0.4142870733023542
-0.33536676414489536
-0.48542461727629677
-0.336280885442302
-0.41428904070712314
-0.29446261991857353
-0.41862291100775223
-0.37566200000000005
-0.5559003335399877
-0.4104880029346721
-0.4557789624108087
-0.4066915851789877
-0.3917925999309056
-0.49069065328891
-0.5379388259671705
-0.5958970060827515
-0.4585455555555556
-0.550409743346418
-0.40374149540260257
-0.34183427894322
-0.36488344436588976
-0.6171865220637867
-0.5519485040297583
-0.5575298388782878
-0.6653177775626599
-0.48243901095267633
-0.41192999999999996
-0.6137953870820465
-0.6757239291410339
-0.5053976691091079
-0.6366733066666671
-0.5948125216962425
-0.644278097127506
-0.48521908796858826
-0.6412198638670308
-0.7301084378586853
-0.4894781486349635
-0.3493462705793204
-0.4700644130248816
-0.6058598856991799
-0.809006152145265
-0.6062508350694439
-0.3470899810469765
-0.20708523215294464
-0.5295249510503133
-0.8071652363876834
-0.65103294482331
-0.3946303893136793
-0.20013653312682822
-0.2638182869280482
-0.4650121375646732
-0.25560613391809434
-0.2806914530293223
-0.43800295123412
-0.6018243999999998
-0.6999791327555727
-0.6430258094116185
-0.40193008216973264
-0.3493127964830897
-0.39820155615828967
-0.43145670397464997
-0.5219871233725976
-0.5714572741795204
-0.36083353741894997
-0.4318108748318176
-0.45836134485331564
-0.34947029803952584
-0.402106960497606
-0.4394744738091781
-0.27307167714663527
-0.43144486252683417
-0.45357963655742406
-0.20448830922431827
-0.2872845383115727
-0.2632416783303032
-0.264355815603364
-0.347895485512413
-0.5045746631535444
-0.4199606766193582
-0.44364456160099963
-0.4213498066860695
-0.3291966847400918
-0.5151117195556827
-0.5666456278760076
-0.4704876297010501
-0.4035311144557887
-0.4129783076324263
-0.3126078545567266
-0.6415703738174557
-0.44488755870854985
-0.3318023059162369
-0.40182392176758724
-0.6298308020058236
-0.35672752081618486
-0.3203625781250005
-0.2946139253518507
-0.5579009576725077
-0.48323517255631365
-0.5168827898326105
-0.49255206708804183
-0.46191484115982523
-0.47754583850801763
-0.3503310748124149
-0.303817878292112
-0.5089939966935316
-0.5921273894884945
-0.4966687576140975
-0.5635304219504752
-0.5031680321554036
-0.2619341215101807
-0.4624670767479093
-0.6914719054680719
-0.5421829177901015
-0.5885803653475233
-0.608177599750634
-0.4614978063649519
-0.41946674436867104
-0.5143190035075235
-0.6628553212494412
-0.5245214678698099
-0.6244129753805887
-0.7038789440712582
-0.6580828522907566
-0.48182151394089695
-0.6867436060566875
-0.6193893664051017
-0.364468723446942
-0.3468278487290755
-0.4636267040988908
-0.6900592991113877
-0.707207502441928
-0.4046034439509511
-0.24548195963864924
-0.27567100058140026
-0.6287785435549179
-0.7263055844182681
-0.4808577914649619
-0.26205249546867465
-0.2407221957096297
-0.3602634265110188
-0.5361181535441212
-0.35761039892465196
-0.3265951192388387
-0.37584009105407395
-0.5108623043438735
-0.6644950298207364
-0.48764856592009137
-0.4233943758548269
-0.4462230400789467
-0.4518762476958044
-0.4610171106228113
-0.40563350427919603
-0.42359208635901635
-0.48383234199522646
-0.38098908123857234
-0.4447459678583614
-0.35755045203854396
-0.27062212544426434
-0.351589650040855
-0.2119902839429629
-0.2859414698390464
-0.49958530825928266
-0.5135706214663606
-0.4499875014829057
-0.3980978067096956
-0.3476853863871978
-0.3787248443539761
-0.5784408322032258
-0.550254983492268
-0.36265287990965267
-0.3501509575017376
-0.39663627683405706
-0.6697536043835307
-0.5022029307567967
-0.27073250812607697
-0.39190491837156477
-0.6640694415196186
-0.4198462158000424
-0.2720506562500001
-0.36117754030613475
-0.5909008628394519
-0.5059118185575534
-0.49317320000000014
-0.5235062350351883
-0.4995245040960293
-0.4785867710724894
-0.37344836368395584
-0.2894072538687081
-0.5459189095543157
-0.5407852961745921
-0.5469117701301349
-0.571030717691711
-0.5831719201735893
-0.3455044696922224
-0.61652454616263
-0.7160162202321826
-0.550432543618293
-0.5730598880208331
-0.5799740559551779
-0.49171455209406467
-0.4789193732176071
-0.42137835257972206
-0.6457161427913717
-0.5503174476131428
-0.5851936635668534
-0.7795493111389201
-0.6375756996049837
-0.5270490559999997
-0.7054814974465452
-0.4477971286463644
-0.30424405377332625
-0.41775439966935307
-0.520210005951643
-0.7331267999311158
-0.5205602732966388
-0.26173227163976936
-0.2781089340243345
-0.39083201334869105
-0.6874853488602907
-0.5681354316954704
-0.3619970185833177
-0.2862240988577874
-0.37629108451502374
-0.4582802510849349
-0.4624134104782592
-0.47748920899945935
-0.4147324844620679
-0.4619240916553005
-0.5581318946415333
-0.496314498108629
-0.5618418992609898
-0.4982587798856515
-0.44866929621884205
-0.4522223178498938
-0.5336779859870849
-0.4601076317156181
-0.46631763841111934
-0.3756747843769375
-0.35985881680887116
-0.4451546666666664
-0.5567376257855762
-0.4552903678877224
-0.3218759123554004
-0.343323720571921
-0.4293879978699113
-0.4665577970655092
-0.601854134561357
-0.3346361274801335
-0.24165442470002316
-0.44627426666666664
-0.5070054507129572
-0.5354296781511637
-0.26794033405128564
-0.32665478053316793
-0.4809868576152096
-0.432851730622424
-0.3008443686389235
-0.3716001602935756
-0.4340235975193802
-0.43329000000000006
-0.5428726666666669
-0.43922796850393664
-0.5527452969561554
-0.45688927584139255
-0.38798313516842226
-0.36771168573108265
-0.5802136206320901
-0.5441595731911465
-0.4913682161458332
-0.5836344911455967
-0.5974998954043955
-0.4925428760835411
-0.7100823566830767
-0.6750180900580852
-0.5108029357305228
-0.5916133697916667
-0.5421336559924631
-0.5584557226784933
-0.5547147813597855
-0.38840365870020505
-0.5673437270651592
-0.6164316435213893
-0.5270307733333334
-0.7647006976312573
-0.5821691775160163
-0.6218544266666671
-0.6083211668094358
-0.30389300750318876
-0.3501596735845051
-0.5401424968130908
-0.6104899524695188
-0.6357394975305403
-0.33456433253711526
-0.278084435832505
-0.44887183014542015
-0.4983774602190541
-0.6220084311433717
-0.40820091739538195
-0.3710801253577216
-0.4910285733500204
-0.5081073333509637
-0.6034588992054577
-0.5938179224112008
-0.4769816946724532
-0.45644485827575737
-0.6525058387581686
-0.6121206174401371
-0.48699087699023286
-0.5881022867534622
-0.5395265848080806
-0.47906410413581496
-0.44543999999999967
-0.4407667908001909
-0.5102903409326308
-0.2723362751055341
-0.30854041141912164
-0.5079277722669971
-0.36030382999242283
-0.4932780695517239
-0.377182148497015
-0.22350586799395353
-0.4192561599999998
-0.29959501343252665
-0.4404850588584637
-0.30368847149538447
-0.341291985437921
-0.26179791726940754
-0.3487896305199794
-0.3220228166774838
-0.335985692479385
-0.27940834694229055
-0.38558333333333333
-0.5583434238479025
-0.3881898695241828
-0.48011373588508316
-0.483202816518107
-0.40511575730418126
-0.46911061233421597
-0.5527258208629721
-0.5430214201108291
-0.4466131929976846
-0.5208512568019424
-0.5768041841551272
-0.6026870353564909
-0.6986864638747609
-0.5724539108576149
-0.4983805331680096
-0.5898130438564487
-0.4611088331536853
-0.5690901930956503
-0.6307240026873382
-0.3780846777598643
-0.40765910110118314
-0.6286531894502043
-0.5298443999999999
-0.6514603629917437
-0.579051937728181
-0.6582766115478406
-0.40548045409192146
-0.26369217881057866
-0.4808365086948103
-0.6185633333333328
-0.663455023404204
-0.45414465238116736
-0.28842257038517444
-0.4525579229215106
-0.5891579232025128
-0.5110234843523641
-0.3779189031280765
-0.5416662957984458
-0.6603679383680553
-0.7474664517462285
-0.6068184768909556
-0.4393520603795705
-0.7346097333333327
-0.5727974255466322
-0.614616375284149
-0.46184378728387365
-0.2951100621924408
-0.4771889640397356
-0.31719533895985935
-0.35487878173241677
-0.5467091630502169
-0.3530004828377244
-0.30553581389218104
-0.38396655526198736
-0.2866451461262765
-0.46811617015912427
-0.26410707435979097
-0.2952796726516019
-0.3102045488121774
-0.3705740895364525
-0.2489894861090449
-0.2613969911658955
-0.31300976041666667
-0.3046926116518898
-0.3046316337701899
-0.4272430708824133
-0.47204230502169864
-0.417230345301526
-0.3648106606962955
-0.4638523934428846
-0.42826657111333705
-0.5798522505251072
-0.45840291532351013
-0.45956014397908623
-0.48026622066478036
-0.4392171567663301
-0.502307817259764
-0.6029701895898184
-0.5840949740964705
-0.49416981188950854
-0.5344785072880534
-0.48543894322012565
-0.35484948728677174
-0.5607104833829136
-0.674388
-0.40389288064767176
-0.2915548209554278
-0.5263145569568244
-0.5844706665840037
-0.5633449190151436
-0.6415184299297892
-0.600944855176689
-0.30796511957979633
-0.36052320755476597
-0.5910162654845309
-0.6528716441982356
-0.39597295690652445
-0.4421583161146236
-0.6184362317708334
-0.472001866112102
-0.5300483342391332
-0.7398737538747674
-0.8131736000000002
-0.5245753860191301
-0.736260765034098
-0.44143197768133907
-0.31611027529707764
-0.36843116530134884
-0.3541515396188127
-0.4131293483890756
-0.6303547291035451
-0.41396412906372587
-0.30734707033254066
-0.33813366520178884
-0.3293985405755882
-0.49903342847695803
-0.3667942511047291
-0.32341014628438286
-0.2930641741705247
-0.35089839677619356
-0.35084386153421
-0.31742758781869074
-0.28549776475694433
-0.3490411133583535
-0.37011571690992584
-0.4518439429634221
-0.39105864992767075
-0.455250217857148
-0.4033933731634978
-0.40752434701639495
-0.4046042517462282
-0.5872753352624825
-0.42407921751189376
-0.3850737236539797
-0.5315401375690462
-0.4626644497643652
-0.4431280381897084
-0.5010251075934614
-0.5006493241899388
-0.4985125983828697
-0.5879403391516185
-0.4030801316640618
-0.33768802705001993
-0.6058684345939237
-0.4941382736073156
-0.3535062019853348
-0.4565897143665201
-0.648857285844183
-0.5570742191315464
-0.6873466040669508
-0.5636273680677827
-0.44014636712046884
-0.5206360860758074
-0.6245438865287422
-0.5216085246608332
-0.6782316426849064
-0.5179482916883785
-0.7916790625749118
-0.7282600543405913
-0.4669245109182345
-0.46617209769621576
-0.409786085822855
-0.36895813196168953
-0.40631737777777777
-0.6373793687032431
-0.49596759896119463
-0.4770819765999435
-0.4050366667614718
-0.36148258181602677
-0.43994936
-0.4471702098681067
-0.4746297545111471
-0.3647917275257793
-0.3293881163463526
-0.3942101076138536
-0.4580222661608621
-0.32316566731299895
-0.4585379726307313
-0.3699406977701097
-0.4422839832610043
-0.4395568028940566
-0.508764829870691
-0.588339112786827
-0.45186324142286866
-0.41582068184886717
-0.4880115049844047
-0.5077847871461049
-0.4304770683805994
-0.5696530873730482
-0.630782450705386
-0.4541821102617228
-0.4716299494117698
-0.4821535343338883
-0.614110884075028
-0.61690787590012
-0.46622543263592736
-0.44381843176945274
-0.5193681406484096
-0.521655982174675
-0.6730810620100575
-0.5947979494951753
-0.6801485690902355
-0.590836438681137
-0.6641863509173952
-0.6017926940176954
-0.733489061293656
-0.6607535351979111
-0.5834719403962101
-0.5763545629340965
-0.6182375430123401
-0.4523044013611594
-0.446281783579673
-0.5189192448853069
-0.5980774085744966
-0.563372398250424
-0.5903567845841792
-0.44263645377541283
-0.42452640000000014
-0.5041534245393128
-0.5435257362828322
-0.5393390677003856
-0.37382691110676314
-0.42300426200674585
-0.545119915722763
-0.4723495566943068
-0.5564638751846921
-0.40824197052388644
-0.5086100692506457
-0.562802
-0.5840453961894116
-0.6969308512787168
-0.649589050494825
-0.4773647414675081
-0.49392689933203177
-0.532882152024304
-0.5757505743638749
-0.7436023103925531
-0.5764783011654763
-0.5034104690581744
-0.5061056063584282
-0.7060767480066835
-0.5747804836925225
-0.5806269505208332
-0.6420394593924365
-0.6097572351145572
-0.6222207760363198
-0.6211876783840172
-0.66995032
-0.6391866968381896
-0.700056666666667
-0.5935675632538916
-0.7137884248353802
-0.6229697446317215
-0.5300064593947554
-0.4904706385616865
-0.7017885513535856
-0.520950610078044
-0.6820309648898597
-0.578720147383658
-0.492923094606323
-0.5958505207687538
-0.500163108025154
-0.6748395965131846
-0.48942709508799614
-0.5093719714817108
-0.5400946881150795
-0.6211512953441983
-0.5944569201254806
-0.5116117674418604
-0.60582
-0.6236150393700789
-0.6060514213507754
-0.770440947051378
-0.5657649779031751
-0.5825936918477039
-0.5571555208333329
-0.6256114055673039
-0.6899231089980575
-0.5052128240635109
-0.558799929125135
-0.6268500788548347
-0.5390235627195697
-0.5760522666666663
-0.5886812427807253
-0.6032396776193426
-0.588946378489604
-0.5728465430520876
-0.723813510434644
-0.5831473872488745