<?xml version="1.0" encoding="UTF-8"?>
<VTKFile type="UnstructuredGrid" version="0.1" byte_order="LittleEndian">
<UnstructuredGrid>
<Piece NumberOfPoints="1536" NumberOfCells="6750">
<PointData>
<DataArray type="Float64" Name="f" Format="ascii">
-0.4812526438919544
-0.52574
-0.4478745297032915
-0.569073819207638
-0.47547430714861433
-0.403685643490678
-0.4248482816027869
-0.43344886718750003
-0.29699399745799404
-0.3827623654108185
-0.41731947303161815
-0.2679770690755946
-0.31858271906090396
-0.4500412
-0.3297371438196207
-0.26578100303067637
-0.47927665840049594
-0.4473882756614946
-0.5834312977043459
-0.47004097127505695
-0.41020293511892686
-0.4282959001002524
-0.4618483581318459
-0.33643334780855033
-0.3211438074073618
-0.26182325367214926
-0.24205437607528899
-0.2691016617605682
-0.17558696300888635
-0.14439745399789913
-0.2509094386081188
-0.11359258103556968
-0.17173914845662067
-0.2848604573542826
-0.2840352707170904
-0.46871092387781804
-0.6314347784669205
-0.46635553316800993
-0.41708444762809554
-0.6081124727066104
-0.47803943936514254
-0.3383093239459018
-0.38723649868120874
-0.4096305207687539
-0.3354902537756128
-0.27860297617505625
-0.2514994381654881
-0.22389463880967145
-0.2324232695141256
-0.29223595614242687
-0.19703254071519358
-0.19600607701144873
-0.20199235215179448
-0.22463333255837983
-0.183605126224188
-0.25774894507091545
-0.20650214098657485
-0.4029534542706373
-0.25342055474271546
-0.4256584703907225
-0.633982246680774
-0.47933371357718535
-0.4779803737774661
-0.730717160041345
-0.49400313285678665
-0.4742530973680647
-0.5819437887655015
-0.509958321928952
-0.36405808711357834
-0.45731872066979634
-0.4506130616907635
-0.49613958669146563
-0.3089274046111596
-0.3204288015453099
-0.3910287103120486
-0.31405622492052143
-0.3397161424092613
-0.22338228687190462
-0.2825165934686152
-0.5348200573137919
-0.3221918412202106
-0.22155356078819635
-0.18644902709020258
-0.49355725067216566
-0.29618494665735456
-0.22021232135691537
-0.384059803294093
-0.4305412281913889
-0.29564456904319103
-0.3597480551437628
-0.5687668624075538
-0.4547866666666669
-0.4494330749994837
-0.47026927243206335
-0.4967156901041668
-0.7088876729243322
-0.7225023912784593
-0.49903653405884424
-0.42446502663331404
-0.5298085689191981
-0.5588618160032358
-0.5487350957200016
-0.329275361239066
-0.4601382149946532
-0.4759295999999998
-0.5793610869375247
-0.56187
-0.3143346725710201
-0.2884005187188086
-0.4782576606743359
-0.41594140524901807
-0.4642951992623195
-0.3243779981542947
-0.1588417738230049
-0.4664717609427332
-0.6570697141794285
-0.3948869254417567
-0.15029402022089577
-0.3235559631699249
-0.6265017013888892
-0.3256910601856223
-0.272947811675819
-0.5026279964868774
-0.42196044673285255
-0.3498173333333332
-0.3068830522835298
-0.4993162724147673
-0.399898
-0.4061056489552977
-0.42122889713403694
-0.4817291406250001
-0.5697686476566518
-0.43766794455380525
-0.5475053787972721
-0.3971749153021538
-0.6778048990398454
-0.6733279664645689
-0.47816785190219013
-0.31682148726534193
-0.5335397449655838
-0.5325773600000002
-0.5294388095976199
-0.6166367981352875
-0.28734164813620827
-0.38160413299308416
-0.5658377218040656
-0.4999599566026039
-0.6082678408126987
-0.47063800000000006
-0.43126927298991374
-0.18986118086188417
-0.47865268530249244
-0.5113921993692169
-0.5389345718127031
-0.21986864363973133
-0.24395325734038395
-0.5789843190919798
-0.5301327604935208
-0.3781329600401718
-0.19812830831493755
-0.4919724359742368
-0.53289209375
-0.38443466574724955
-0.3994565747246153
-0.4846479014259144
-0.4238069120170067
-0.3702142400000001
-0.2891651481711098
-0.49454885754438216
-0.3513854215747054
-0.433171948433591
-0.4523963792745717
-0.5560230865483146
-0.4933262922780192
-0.49990848366576596
-0.6343818378149642
-0.339268441045598
-0.48224358130692296
-0.6148995060515853
-0.6376474693531725
-0.31775924516299897
-0.29807314374625987
-0.6377038138775325
-0.6288132864916992
-0.5242232199648119
-0.2043165390775971
-0.4591816973579644
-0.6673324347911632
-0.6288190762426136
-0.4044972424824849
-0.652058948573009
-0.3745586200437503
-0.24315313823195808
-0.5836866284631804
-0.6051199331905169
-0.4661554666946815
-0.3585954133085345
-0.5734260645318304
-0.24308365345605046
-0.37432594405826763
-0.591292252062389
-0.5383501789394948
-0.2438644481762481
-0.4497592723007771
-0.516378631211691
-0.36247535664555874
-0.4217654111485318
-0.3837494313838938
-0.5293004564958305
-0.4020152344207433
-0.48725716282673576
-0.4617708011540293
-0.4340957800074357
-0.40685168448824977
-0.3840457615209755
-0.30265928648802687
-0.48923977609402863
-0.41256283736309074
-0.469321375282484
-0.5475563767307297
-0.5476113795303229
-0.5525678397404234
-0.6360424358225512
-0.6279759489021385
-0.42551372105152585
-0.3712857315561066
-0.7288126185476321
-0.6698894361231659
-0.4249253397366565
-0.19626010436751604
-0.4080913221312104
-0.7723722169986708
-0.702203146302253
-0.5674625541636614
-0.16567294396897794
-0.29557292265122986
-0.6628641279189916
-0.4693119880140519
-0.6533739756227778
-0.25208176343708905
-0.31005375990239675
-0.6742669726389754
-0.7389126090466095
-0.2957263771401813
-0.5456550110435164
-0.5880200251617702
-0.2635502882328727
-0.48681423934697193
-0.6351611865501257
-0.33237163689187627
-0.3404739419301508
-0.5965111488085618
-0.47338636616983704
-0.364844461045065
-0.5997630756106068
-0.542741634762171
-0.43331695490803795
-0.5756103442491756
-0.4128567922824995
-0.29175730759169943
-0.5462099114198835
-0.5108550569869804
-0.4547416423896548
-0.3314797503223595
-0.5197757710574351
-0.3929442760938457
-0.40367777332172855
-0.3069883533900565
-0.41054534362471573
-0.3673584392836818
-0.5113887022516883
-0.5943939999999999
-0.49933433232066454
-0.5908962288044717
-0.42595908072916666
-0.5874493760354333
-0.4416788158710477
-0.5716247067242063
-0.659852271019076
-0.4773482944823311
-0.7273143683209681
-0.5823044800000001
-0.5845403419575811
-0.2944814019501097
-0.23792774126885738
-0.7863605269000459
-0.6529237768133912
-0.6529419282134
-0.2773333072400031
-0.13150291896024371
-0.4937781373562012
-0.826910926746269
-0.6971399439700844
-0.4144953146084453
-0.15517066429929213
-0.48570712671873134
-0.5767910892746435
-0.30383223950949795
-0.6676433923564651
-0.5100163346026765
-0.2791249134366745
-0.5344397804587723
-0.6572471478730721
-0.3600153700977105
-0.40988973338210566
-0.7189020077487279
-0.49738820709080694
-0.4251282377075152
-0.5619701262060542
-0.3354359415335828
-0.411868
-0.5428395261948841
-0.655793703406029
-0.5103969203829984
-0.5589077878299129
-0.5989071730430758
-0.5682622627402356
-0.5647945148934786
-0.36236933146045147
-0.2947119611879225
-0.5892536583466865
-0.4735040022503612
-0.35857045876794374
-0.2824679322916666
-0.414045520422284
-0.27982766110629004
-0.35408493614383135
-0.21881963459779272
-0.40367880000000006
-0.41612190328580284
-0.622317096658193
-0.6360699999999997
-0.47971342178684334
-0.5573686911498167
-0.5858235653455011
-0.32608075520833296
-0.556188343634719
-0.3380875077495346
-0.6143179729371577
-0.5546739201142251
-0.28726624550526936
-0.49419976334558396
-0.6272863936077399
-0.62232370459547
-0.4463179999999995
-0.7336883574646084
-0.5273780615829712
-0.6450964401495068
-0.4424947025906125
-0.1816644604977401
-0.3204211111111105
-0.822684902919555
-0.6732204561424311
-0.45312125710125756
-0.19596592014534708
-0.3038356413912818
-0.5827345530068194
-0.6994851240234078
-0.4609554067069362
-0.31671094458462706
-0.3813357798032399
-0.6356967629803162
-0.39648069630765265
-0.3570489260660507
-0.5340383549792986
-0.7007343464343522
-0.4650440290693662
-0.4110784144162018
-0.45160415153047945
-0.55358052985306
-0.3885043333447402
-0.6961224850190925
-0.6738383349770861
-0.5130986666666663
-0.45793979529235673
-0.4115168817128725
-0.5329700000000005
-0.4773348639576825
-0.6959540405719271
-0.6008312302872496
-0.5549040242474347
-0.5957772387402568
-0.5637723275262713
-0.472861605116984
-0.3302932129664437
-0.3670884809969625
-0.4986772873633161
-0.35505956814396034
-0.2864148367185415
-0.2883675868055558
-0.2856561461724056
-0.22774571020480724
-0.3140632341392849
-0.22106786905053613
-0.34403239999999974
-0.3543537879727212
-0.594861999779554
-0.5106989667286638
-0.42567221576027797
-0.4412176950704157
-0.4344149783013019
-0.4192953232389725
-0.3964910837830517
-0.4723738592684443
-0.43496575763049644
-0.4696823744860617
-0.5601660589147283
-0.4646231873685079
-0.5602496987001803
-0.55918
-0.48389905015810036
-0.5774096930993855
-0.5457802814631129
-0.5003041013384676
-0.3250721192448936
-0.5652256072221122
-0.5699289859943786
-0.4266873626604861
-0.30244552676467423
-0.4736662665886689
-0.351457476834057
-0.5831124704409058
-0.581736492604406
-0.4715680061572218
-0.31576733333333257
-0.3802709379250313
-0.5049573748283881
-0.6347588062825085
-0.5832967609151217
-0.43441273893775134
-0.6756190758588317
-0.7055029681008483
-0.4247562193694579
-0.3053428133467175
-0.2640841264389185
-0.5304340000000004
-0.7829512590661724
-0.37928105085602654
-0.295299870129826
-0.3193035460069434
-0.5153279568065804
-0.5178303960288385
-0.3948215784848599
-0.2966543761255507
-0.4263675195288274
-0.5645533428819451
-0.5716202641963405
-0.35922703562588865
-0.571036004546394
-0.42744832550749495
-0.6851107191406066
-0.5951421698698082
-0.47099034666666606
-0.3095908888150822
-0.6579674286481909
-0.4466662919227347
-0.6031222761370755
-0.6946596005720322
-0.565289306666667
-0.44924036453812755
-0.46198408858190215
-0.6062543376730726
-0.41024708580269004
-0.6490329668361402
-0.575762967091826
-0.5314020061996284
-0.488105535832023
-0.5110852290733986
-0.39089669340020733
-0.3319342709981114
-0.49428803545310246
-0.3924976179277158
-0.3132111898160766
-0.28434108837628086
-0.43751700306644664
-0.273336786746632
-0.24394505894282958
-0.4136735786869102
-0.23917363043124829
-0.3698072288489352
-0.3270543432308298
-0.4625657167458845
-0.38332600306632686
-0.38092860307365933
-0.3381082490515759
-0.3501981081500245
-0.3895258603019842
-0.3138606235862986
-0.36805974288100085
-0.3795325506607989
-0.33175591765267365
-0.3970469901862395
-0.41555627604166656
-0.4061930199976959
-0.3519504824307033
-0.4099039956602611
-0.4894943254804713
-0.48162995500139294
-0.3149085261077608
-0.3543883794429867
-0.6033826825906186
-0.5386136319882125
-0.5333787126035597
-0.28834782931608866
-0.37007413787972715
-0.3383669571428485
-0.4392482484628727
-0.6096248022157655
-0.5217899919687367
-0.5394973269471598
-0.46477570055796696
-0.49318
-0.37171796399903917
-0.3864714980177977
-0.4907042043686432
-0.6719215097471927
-0.4543537304778508
-0.73524402801944
-0.4701011045505267
-0.25478250878323744
-0.33651039169325164
-0.430968187488375
-0.5772326069435831
-0.5041947712667803
-0.19036087493090734
-0.36640204795040826
-0.4520808463541665
-0.5288324123890996
-0.4366961698171093
-0.20591656434048092
-0.37991593763174086
-0.5114366344699319
-0.5496667927060378
-0.47425677400143923
-0.46146984128952256
-0.6562520382999246
-0.4038058342674801
-0.6353621542679764
-0.5682891763381851
-0.515887632
-0.3436580100186953
-0.5865964507113134
-0.47417577886388435
-0.4975297326523429
-0.7022148142433164
-0.5141511961424535
-0.45819089721016737
-0.4921704979503212
-0.6148532517048978
-0.38123116155887976
-0.5784686312966296
-0.5691263737943763
-0.4426982171660039
-0.39056269342386374
-0.513887473453193
-0.3890017936769381
-0.45501397272777017
-0.5943553429367924
-0.3987796750499371
-0.38011201620169394
-0.42625813573536847
-0.6143265368659911
-0.3580127782050509
-0.35937020994075985
-0.5657005470451066
-0.30940452537647867
-0.4688537582145073
-0.4099809070674607
-0.35229486257491155
-0.3852465494593093
-0.2536052147151953
-0.3833252977679162
-0.26761866765074077
-0.31573390514728844
-0.22645344134638637
-0.3771361162745843
-0.3057140847419583
-0.2327573915596576
-0.24700309100141707
-0.4028283570985742
-0.32820089354012605
-0.1738009272793102
-0.2859234511306079
-0.19669901516288094
-0.3073981950358123
-0.3505032176069436
-0.5736793453192813
-0.45106561136580997
-0.43213493090739113
-0.15205795993291857
-0.4437761920644765
-0.6404643449059716
-0.5559495261009827
-0.5487642247303269
-0.43324338614868796
-0.16647211898585546
-0.516385195133901
-0.32195932973783586
-0.43334187013021724
-0.5991786271965348
-0.4549154935791873
-0.5393182983057178
-0.5310528941930155
-0.5201211630502166
-0.4584659747490248
-0.4063914663201071
-0.3375081627233876
-0.5921827655713993
-0.5003667442555849
-0.6123292786062099
-0.2552209988840666
-0.3158961197720982
-0.4432214625694771
-0.45148905867680683
-0.5293458889577739
-0.2532473492150911
-0.28291154144795705
-0.468525249838411
-0.4386902466076949
-0.5281728803068151
-0.429010796445547
-0.26502737308795116
-0.4710034545980571
-0.4626877732071269
-0.5807787889611459
-0.4484674253314987
-0.5128869074188882
-0.5196272196566615
-0.40596523627941034
-0.591386602729774
-0.603280807974199
-0.46858034841082846
-0.4144945143207052
-0.5212701299256218
-0.4454563507300135
-0.4274703515288644
-0.6896331379967505
-0.5160295480333406
-0.4479850182033838
-0.5516510909456719
-0.4935529882207059
-0.44821526967762065
-0.5318375339301192
-0.6183197048977062
-0.3693168127687568
-0.4374363496697824
-0.5630190804298411
-0.5058132033946242
-0.6309512049285929
-0.48769068417392974
-0.4903433316613945
-0.5183200670960649
-0.6097900589073505
-0.55306496556973
-0.4813695296832536
-0.5119958590302945
-0.5557617487021967
-0.44575998202551853
-0.5184808753874768
-0.5090568353128203
-0.4101958669146519
-0.38934145885769417
-0.2723052575766512
-0.11265673300909491
-0.48164846867183453
-0.3279652130962526
-0.3530037524241248
-0.12276516800303616
-0.171187358992834
-0.4756916000000001
-0.41637818116315045
-0.27082296956092294
-0.07712824247955542
-0.24869303096517278
-0.5117345963885012
-0.20069455785078646
-0.1134205116240336
-0.23417585873688798
-0.5112529098078555
-0.49179179582558463
-0.6955779999999994
-0.4615097838108165
-0.5086698488661269
-0.1757585102190031
-0.1628770481227516
-0.566170016320881
-0.6504212922091334
-0.6213741045322082
-0.4886114520359393
-0.5353470137588991
-0.1663276322988185
-0.3579856596302405
-0.3007361292299139
-0.5002669954288036
-0.4623809026681034
-0.4958092873263881
-0.6064563909664257
-0.47722458885868674
-0.4782864089687952
-0.45311663614847625
-0.5341925920157723
-0.36113543542054066
-0.40235443292691303
-0.5209994748437482
-0.40049550926183924
-0.2753806399999992
-0.46820181866497995
-0.4576153550456699
-0.49116209146112416
-0.5447373333333329
-0.24289820252118144
-0.43745957773093624
-0.4742814912838023
-0.49655948363233554
-0.5899526531093057
-0.4457307949300822
-0.40156946594233917
-0.4945829940746644
-0.49338654510661745
-0.6330715850694446
-0.44347592703072763
-0.44636431091755946
-0.4115599370040795
-0.39826374543341886
-0.5226228537761403
-0.6388703046083909
-0.4803028599049388
-0.503184189242221
-0.41917115994230425
-0.45919087770501416
-0.45043481210299047
-0.6145749270383173
-0.576258586666667
-0.4551923453819305
-0.4848074293725641
-0.36330703669250697
-0.5770227386887181
-0.5819259385307146
-0.6315156705655434
-0.4422918536887784
-0.5415795970352825
-0.6428577978562017
-0.6525711841891882
-0.6255483889508983
-0.35139017342809303
-0.5803028004638433
-0.6399339784777962
-0.653026845686597
-0.42578283222572194
-0.5766809133052807
-0.592860141531604
-0.500400087862987
-0.5451020328542348
-0.5495144419638242
-0.5609661363245335
-0.591105555555554
-0.41605797335705047
-0.3792660417948959
-0.022628335209905925
-0.26024876680359293
-0.5364227216367018
-0.51578523248605
-0.46934040545055616
-0.22031067519648204
-0.05274619749420035
-0.33099517621675195
-0.579159101053936
-0.511434500564821
-0.15705962759092884
-0.14277490985492317
-0.6785606730040642
-0.5134035947594403
-0.19474449526713297
-0.5216473237921317
-0.6742712919896644
-0.6001233333333333
-0.75327
-0.5693494734811679
-0.491333466238558
-0.33435490764937215
-0.07567835947928449
-0.44444432018849783
-0.5572072343160225
-0.7323554723541448
-0.5284277126736102
-0.49293184049016864
-0.3138528810483559
-0.2802801665391273
-0.38535424313365446
-0.4478821302317682
-0.43919529448233097
-0.6437502572916665
-0.6031672685747318
-0.3908018348522358
-0.5696579999999998
-0.44555092462732965
-0.5940715211669806
-0.5237700678239304
-0.34738235555555536
-0.465954108496524
-0.3148267810153616
-0.44363436799999983
-0.561391184207981
-0.49075925878249277
-0.603622288523777
-0.567467777777777
-0.38983456763794183
-0.5535740809479927
-0.5211044538190935
-0.5558673703124999
-0.5705013779183106
-0.4504482477042011
-0.5503777250742009
-0.5643116547304589
-0.4977278414135154
-0.5605008275462958
-0.4483621344077359
-0.41230925050801986
-0.33978841533587284
-0.45359922643124423
-0.5115412150658526
-0.5489549979334575
-0.49849208000000006
-0.6079268160253172
-0.32756870507544983
-0.4297545977658129
-0.5759942591206548
-0.6024251715367616
-0.5674813333333334
-0.5135601458152512
-0.38258495766605427
-0.44739
-0.5929651078986459
-0.709325189917831
-0.6362387965730147
-0.5722091389405527
-0.5833010207852799
-0.7347753708763539
-0.6759644296667967
-0.5173544321074123
-0.42909398846797686
-0.645415788529338
-0.6530224759748416
-0.5823603715496847
-0.4387039973958334
-0.5705757061670846
-0.5605083969326276
-0.46822441103533796
-0.5102472220540594
-0.513888
-0.5212184748915065
-0.7393446666666667
-0.553649720971381
-0.49777265254418585
-0.15831750173155248
-0.15073138699350078
-0.47350453273873677
-0.6726227344492665
-0.638982408322233
-0.4667685737419897
-0.12911391992432183
-0.25707071589171326
-0.636199062616243
-0.720931247794457
-0.454947888674397
-0.19038178987258284
-0.6415315922711304
-0.7295785498655252
-0.48755009937433397
-0.6872026976253952
-0.6033216297674421
-0.5147499999999999
-0.6662234984500922
-0.7265997097567528
-0.5594785173049618
-0.4606389738571151
-0.19099453970106428
-0.3416982963514989
-0.4295039508576239
-0.7422382282151526
-0.6761992421875003
-0.5043036026678164
-0.41967970571581664
-0.32225564252277555
-0.4497808327737926
-0.4341576374181985
-0.5819527621409383
-0.7056062323768036
-0.5331835493342125
-0.4735339388303362
-0.6538673333333335
-0.5113395246445746
-0.5845771087434132
-0.6316246712657813
-0.4877890933333335
-0.4314505288209665
-0.41041877082041783
-0.5828193886422818
-0.6154543107217839
-0.48775373547796325
-0.5692573302333267
-0.5390481828201416
-0.530656446544768
-0.6515587982344061
-0.46574105935673044
-0.4340788741319434
-0.49529936404076486
-0.48881911356081204
-0.659084720711122
-0.5256648715850384
-0.34804927898326016
-0.47907756153166775
-0.5344753008210267
-0.39011396866036124
-0.29976834892830795
-0.5028062018741425
-0.6222424891631421
-0.4796422558721917
-0.42480922666666615
-0.6099922992630529
-0.4094772996879326
-0.36374244665458
-0.6542706308483021
-0.7056440048374256
-0.5267897004064211
-0.5806194135151891
-0.42022058987813876
-0.4765087454994175
-0.7485195190343944
-0.6980451330385334
-0.6034981540653473
-0.6190207142887775
-0.7264055140448155
-0.527205579788531
-0.4560230964132064
-0.6176627794409841
-0.49029752494034345
-0.45486154470970597
-0.4069951344384985
-0.4029827378428082
-0.33664614268848614
-0.692831028793827
-0.6925159689454591
-0.6353073090129778
-0.3638994330911867
-0.1645406638574118
-0.43567667904350227
-0.6384001078684881
-0.6851332922554385
-0.6533855849486266
-0.31384775018763356
-0.22753236763794163
-0.5493370998552646
-0.6761921757292746
-0.631923247594118
-0.3700449957970911
-0.5090022239404969
-0.6350810310043239
-0.6334164973958334
-0.5679370975261949
-0.4697513422708364
-0.3934694575325476
-0.4965799685885522
-0.7282312338489126
-0.6770716515814429
-0.5550068625734385
-0.3086613219008807
-0.287223718522366
-0.420574002273197
-0.6281610747984415
-0.6939600783550636
-0.6179379243458331
-0.4709238404629053
-0.3532582694659432
-0.4751429806412481
-0.542946930357512
-0.6397243556668127
-0.6374858396919888
-0.5003415904180836
-0.5776689033546872
-0.5852157193635056
-0.46597138760830176
-0.5149530661307106
-0.6180313507360448
-0.5850381219949022
-0.48826097109825367
-0.49882528953825916
-0.6094600435131224
-0.5157770817417563
-0.32314474344060956
-0.4115891238330575
-0.5192472721636703
-0.5603718130182456
-0.5504128350816285
-0.24116935367073436
-0.2790976960917595
-0.4965232831510951
-0.5082327717741705
-0.5656926701810715
-0.3389794139698274
-0.22011527601310285
-0.4985379101131981
-0.6429353104544352
-0.34034708825579013
-0.3907974364538128
-0.4515200959985393
-0.750347011062774
-0.5126380114142227
-0.3270788342219469
-0.5212606286045709
-0.37536990378904317
-0.5474968534819576
-0.7830703771129753
-0.5363085180822492
-0.5468581140844303
-0.35706410776616465
-0.5659647294416529
-0.7161200113146085
-0.5852364877563435
-0.6192377341453963
-0.5006572827132404
-0.31788487563878054
-0.4053891401099235
-0.24283487497416847
-0.1702178745717499
-0.5219465667837717
-0.6298039450806919
-0.6829836136985944
-0.4857894651963499
-0.20832846086411858
-0.3663815555800687
-0.5080197798467981
-0.5270150139850481
-0.6357603605619159
-0.40815036429804574
-0.2600179241165533
-0.4563953010502984
-0.4769368145321326
-0.565494739626669
-0.46671464352138875
-0.4244160641186185
-0.4425368917563813
-0.5388014583333333
-0.3871761895557882
-0.36973198923977474
-0.33221255837983077
-0.41057800000000005
-0.6115875566074648
-0.6213844022215319
-0.6205875203307829
-0.347212462864227
-0.24017527409066167
-0.4468247096507551
-0.5501604038440072
-0.5870087013501414
-0.6182394257261827
-0.5426907025418474
-0.3490364557687044
-0.5201017149896857
-0.591951276531553
-0.5432886528222619
-0.5532757739583333
-0.4282855818440219
-0.5244327102638843
-0.4613269070055796
-0.3109143627083857
-0.35797757527587853
-0.49961374296342237
-0.527295620086795
-0.5265099656765116
-0.48678206925685336
-0.4632674080000001
-0.2784197283760468
-0.158317064723975
-0.3108314321178786
-0.5381567121306059
-0.4120887655300684
-0.2872151390507672
-0.0827233355528381
-0.22556253572535648
-0.5773467392468525
-0.4489202723438393
-0.34690315934722377
-0.17431225423603902
-0.19978068678675923
-0.5862578753972553
-0.6131426359718141
-0.3890128332300061
-0.3960047784723653
-0.7094902179517568
-0.5761192651658908
-0.27274884243025416
-0.3787094966411843
-0.3669292500952546
-0.682940025405749
-0.5542759909209903
-0.4350305382118857
-0.3197623284484519
-0.5609376099051714
-0.5652594220498529
-0.45986607523908335
-0.251722505517669
-0.20240776609107114
-0.44938133333333347
-0.5188054337331583
-0.5451748639314361
-0.5198744124293243
-0.2172492651162795
-0.29544585454742495
-0.4999113155610661
-0.41534936667050465
-0.4791425670950951
-0.4138715552003667
-0.28637986666666665
-0.4962461735895846
-0.37179931320526133
-0.43188738149767053
-0.4440302641041538
-0.43489262244265287
-0.3240301908448399
-0.4076004873058307
-0.2836191375748802
-0.3228701589664088
-0.340922
-0.4073833333333334
-0.5934120257093851
-0.5036150362345962
-0.5802465214053586
-0.41138881226699664
-0.20439019506988107
-0.40437596890316735
-0.5176446155372308
-0.5568106623263885
-0.5038461307350411
-0.5870111176880678
-0.4101485771643567
-0.5683159660743435
-0.5265122124440632
-0.45064710394709634
-0.48430623697916647
-0.31661853945598395
-0.37503576855721316
-0.4382015048563754
-0.19198332505113933
-0.24574553695144094
-0.34015665385410165
-0.4066962933333331
-0.5377905828028265
-0.3987524062822901
-0.21979394666666574
-0.1557897801528504
-0.11033360208699876
-0.33927069740369925
-0.509970449956934
-0.1632403602397179
-0.13072356726674184
-0.07325481401044631
-0.27499576542399673
-0.5818388906016737
-0.4370506447613146
-0.19004658379884617
-0.103998149100982
-0.255637236463409
-0.6154472423898233
-0.4984953219316403
-0.529515092437423
-0.5840847206168881
-0.2870637559165117
-0.219890939026159
-0.49692594835603576
-0.501605684313524
-0.3835291958332963
-0.3962185855755327
-0.4710695184479257
-0.3243715070374559
-0.5261811111111124
-0.5784954484543796
-0.43245743094902683
-0.5017430606350431
-0.2762486323679593
-0.24270922297995462
-0.6570471192395126
-0.5115326915213618
-0.39757964305493826
-0.4331590483337812
-0.31134896000000006
-0.6679902479851217
-0.4299641203607798
-0.3643202796780385
-0.4276364317159467
-0.552659457188124
-0.29807653062682166
-0.33324299697256915
-0.2533266285572572
-0.4150817305770899
-0.459553333333334
-0.3958360727423022
-0.6696119298571938
-0.5279171867670235
-0.5051166996440855
-0.5241712524026325
-0.26828969211461834
-0.3088435477758917
-0.4618846713320644
-0.5938922931134267
-0.45264076298677297
-0.5854088757637079
-0.5473009130077602
-0.6370455124807514
-0.4684315306137627
-0.39089222084452735
-0.440735198366032
-0.23240877582640254
-0.2988556450825693
-0.4381662803100775
-0.17428296917150324
-0.2331330756870438
-0.28647599160507053
-0.24992657777777763
-0.5476463716922335
-0.20541126196872603
-0.12178979408142178
-0.20297397552281984
-0.14612944086145999
-0.3939045987533903
-0.45317666666666684
-0.04780295960553518
-0.15350576085026454
-0.1510278442103665
-0.37819726885416594
-0.48200147126294285
-0.14836282537558304
-0.15669049092635798
-0.36657567708703925
-0.534855125868056
-0.53866066439347
-0.34748976228217016
-0.20323491241764366
-0.4555917333333334
-0.38940510286852126
-0.3987770200454638
-0.5768397079286363
-0.7380059844255373
-0.4933347136240052
-0.5015114975678862
-0.4359127178364346
-0.25087629386236815
-0.734939868716246
-0.6944882533220391
-0.4585482766974172
-0.4824079684904243
-0.39206285133292057
-0.7292601830107389
-0.5575020493439281
-0.36225887279904234
-0.4391940918496224
-0.6105052715381124
-0.37995151670650346
-0.28306988802083327
-0.3331473581747169
-0.5289496926821425
-0.5805295887580073
-0.34826809733415987
-0.6695294509466
-0.6118538140852469
-0.5055773189301203
-0.6275671544091174
-0.4515485024104598
-0.25238003617933685
-0.3768722096484414
-0.5887183477345529
-0.4320850855142529
-0.5835392955734658
-0.7007969094166636
-0.693196234246776
-0.3721637716057024
-0.36691688972601183
-0.41257719774310947
-0.1869854693347586
-0.29825703624897354
-0.39435
-0.24878257450319752
-0.2351025300954325
-0.3575544081915034
-0.1631167134559486
-0.4171743201337221
-0.06342880945656669
-0.24870534958462512
-0.28626891888197736
-0.28073509188541507
-0.3962643972967946
-0.16870483516388288
-0.2729293195646285
-0.3183374302847079
-0.4563818020833334
-0.23664730344086268
-0.31744910689732886
-0.49230092870427783
-0.4569405599999999
-0.33939893682374883
-0.445317050216987
-0.5189983044017367
-0.7796043004563712
-0.5917891242245085
-0.5521454547388719
-0.6077227908452943
-0.34037234856361254
-0.6144953220103959
-0.7496706074884628
-0.5223175517703017
-0.5185336662306104
-0.4972289813597846
-0.5631454976902253
-0.6092971826477549
-0.3825555715968641
-0.41317701549907
-0.4987454939856943
-0.4899293142782836
-0.2914673177083335
-0.48413315306198174
-0.5205681338674301
-0.6060172907625542
-0.3331548086381484
-0.5565013724247643
-0.6217499841854939
-0.5023635519451699
-0.6822080049845011
-0.6584922232337928
-0.2822192405944803
-0.29663134194303464
-0.5228431155942713
-0.3856951792252417
-0.5143488424054552
-0.7759863284355122
-0.5978429757260021
-0.23265068229379524
-0.4001334108033803
-0.3457464282721332
-0.23249026360466898
-0.31724147137838377
-0.3688371894862677
-0.29719758163950877
-0.4044426279074608
-0.25772640876214076
-0.19295459033549991
-0.16367786458399386
-0.4098234000991947
-0.39051365736397753
-0.4756513259118084
-0.3614838269011082
-0.42418895046718147
-0.5403260147880797
-0.41231005751056554
-0.531095478032652
-0.532514991995831
-0.4702436109388995
-0.6496208608076443
-0.6067772860302102
-0.5491042337476285
-0.6805335782945737
-0.48193803877220903
-0.48851138967265045
-0.6191224441228385
-0.5286539479092517
-0.48795313037961924
-0.5230736
-0.3979145993520811
-0.5348862281634331
-0.4452740437749884
-0.3652022866294688
-0.3505523017480278
-0.5141074291273776
-0.430344540304577
-0.5766618405576674
-0.39508394754943704
-0.48241833333333245
-0.41075569571059395
-0.43733991223339425
-0.5472816507062874
-0.43096323298556755
-0.6340736123028173
-0.7466824708764549
-0.36610107356891847
-0.30227178534912374
-0.4190436957635695
-0.35378663961492235
-0.33761157442412065
-0.7094802112609618
-0.3439782131336914
-0.1841976213676674
-0.41381347119626416
-0.29334363677540937
-0.38667435494726315
-0.46541419168313486
-0.3840161784431724
-0.3944656421712478
-0.10849023053410421
-0.3509450001610021
-0.4711926777385009
-0.5470488098905018
-0.4846519979560125
-0.5847600760074396
-0.6052991361813185
-0.5212948310077518
-0.5158797676333751
-0.543485361552405
-0.47157061320274646
-0.6236389479965543
-0.5527069361438314
-0.4878187818302309
-0.4950345060616462
-0.5099805109808119
-0.46789172836903176
-0.4486849333333331
-0.3791810959442898
-0.42434303464348067
-0.5054005576310098
-0.4312978734635286
-0.30550359791754417
-0.3877702499663886
-0.5779368518119383
-0.45223252100800243
-0.31405144750873676
-0.3615364031007755
-0.545912
-0.40798330448431835
-0.47208604223219713
-0.3568887476299541
-0.4757794779444567
-0.6838826455808826
-0.4288823107446215
-0.327155842811065
-0.3736485974701056
-0.18278351633215714
-0.509137890905058
-0.11429769188478735
-0.2638169791114018
-0.3568506585446736
-0.3585476796875002
-0.4168116243025421
-0.4243217275590006
-0.19788926538932342
-0.4458200151683158
-0.5196387199999999
-0.5781576280223186
-0.61754
-0.4807397503427429
-0.5094471837512168
-0.41118406897903564
-0.5319909174212504
-0.4770539698284764
-0.5209342488117387
-0.47542065944173845
-0.479076925943229
-0.4747250514768933
-0.43292125323413894
-0.42288979231246115
-0.3763467636600455
-0.41842229421367233
-0.539665457143774
-0.40750954432734054
-0.28017275114468637
-0.4865604012940637
-0.31438698929954795
-0.46120305426356556
-0.47133
-0.45673728852791046
-0.4407385339698506
-0.39438620515436
-0.30953835626846
-0.5606998594832159
-0.3044019791666667
-0.41213616716155793
-0.2236724409151499
-0.2567347491709166
-0.11332125011502071
-0.37858632948665
-0.315188017152304
-0.4154571999999996
-0.35218153135501445
-0.4841432176069431