<?xml version="1.0" encoding="UTF-8"?>
<VTKFile type="UnstructuredGrid" version="0.1" byte_order="LittleEndian">
<UnstructuredGrid>
<Piece NumberOfPoints="1536" NumberOfCells="6750">
<PointData>
<DataArray type="Float64" Name="f" Format="ascii">
-0.5592727443321555
-0.53672
-0.44675162726191514
-0.5045866205799077
-0.4312237708475417
-0.4366371455823046
-0.3446682856249917
-0.32629915364583334
-0.3582538496366752
-0.3219913268977875
-0.3168912585244885
-0.31780321197433714
-0.4473812181949697
-0.4415184
-0.3791553787835575
-0.6595445921389301
-0.620482238065716
-0.509401142614494
-0.5646565750717417
-0.5975120221120065
-0.4937265603649618
-0.48870574746470835
-0.46671273920231476
-0.4230501764243533
-0.3868526064539441
-0.4032996810432949
-0.45590271318064857
-0.31102756069581616
-0.47082186584004937
-0.4438650153551113
-0.3567809908233379
-0.6084555225457504
-0.4227485065420868
-0.49911053394737187
-0.42253910812151213
-0.468850263304185
-0.6006995649318004
-0.5957295939243645
-0.5445353790819424
-0.5698336942228927
-0.5311236403024518
-0.5250581036484164
-0.5392150937549135
-0.4182738220706757
-0.4468097103189787
-0.517014998158945
-0.3754272233383667
-0.5105111691258524
-0.486093987440915
-0.47704861388690545
-0.3896241192385593
-0.5061414695847325
-0.42219750680624196
-0.5459732825698428
-0.48063363097473716
-0.3894924752141346
-0.5652219565207365
-0.4171056100210156
-0.532107831866088
-0.5096462081702873
-0.5920603722625692
-0.5312909258111177
-0.5833078683656521
-0.58499906465744
-0.5726052951533771
-0.6374691982998388
-0.5364386718887967
-0.530276549747701
-0.5322374412883693
-0.6387010899244583
-0.5658255426636606
-0.4647486939450305
-0.46451468685760494
-0.4756404711727064
-0.5852932152924162
-0.44583936275681074
-0.48357243716230547
-0.407242380873047
-0.5742442254456589
-0.5696313664838865
-0.4385099136761343
-0.38422582474152484
-0.5490352795696647
-0.6558604955128046
-0.40107787885970253
-0.5007640442109006
-0.6550326294090675
-0.480123540469533
-0.570003182475718
-0.4942939518727447
-0.5664352507770484
-0.49868333333333326
-0.6442886442639547
-0.6275350310704977
-0.7385252039930553
-0.563159609350728
-0.5552803658494793
-0.5358576144919737
-0.635199198901439
-0.716607443686712
-0.5307234746647023
-0.5196034071554879
-0.47865213822403635
-0.5703486141448361
-0.6472344000000001
-0.5871550172872199
-0.5552933333333331
-0.48484592369974006
-0.416233893049349
-0.4866988732095721
-0.5552897706137628
-0.40795188221719764
-0.3858551910974803
-0.4717835512633995
-0.6106612689822218
-0.6693708029016054
-0.3763874741031557
-0.4702738477128446
-0.5889912746333077
-0.7151034288194441
-0.482329051063741
-0.5388685643567895
-0.6639838210374045
-0.5212935322071299
-0.5408501333333334
-0.43705100227319704
-0.5847511895068235
-0.530058
-0.6943626859693719
-0.7112868117323573
-0.7496112421875001
-0.5563161793343516
-0.7488540186851433
-0.6741789516429016
-0.5863069595927297
-0.5157733488964623
-0.506877415149291
-0.47436061822508596
-0.5484410131649539
-0.6547154030467172
-0.6140204799999999
-0.46770885602882317
-0.47798387624937516
-0.42549967195777394
-0.45832336820332925
-0.5283346574878921
-0.5909451010539368
-0.5418914623294205
-0.541592
-0.46047484700757996
-0.4035050468873587
-0.3723327815579669
-0.4569490916479569
-0.3229131474012896
-0.4123619852275892
-0.4798048851396585
-0.5929485429158176
-0.6399462719325439
-0.432683460109991
-0.5158182990114208
-0.5798786575528107
-0.6548384739583334
-0.5601624728653408
-0.5157726802846496
-0.6193653583384996
-0.48305632999424897
-0.5492948000000001
-0.47034496342219473
-0.5787774369562076
-0.5615916377350694
-0.6916311627651749
-0.7257363299463901
-0.6858897628938266
-0.5803340480126752
-0.7672970412166812
-0.572710098835958
-0.6541854173910108
-0.4854289566553884
-0.6705409641115376
-0.5322402996073565
-0.6409562277940847
-0.4925465828150077
-0.4357235125005327
-0.33968731315010153
-0.3909485277321869
-0.4537660242732536
-0.5334026276528904
-0.5677733451745298
-0.5666878151692175
-0.2890761969950595
-0.339530877763458
-0.3661003596876214
-0.3982872268191387
-0.3982327792656886
-0.5522473664118276
-0.3851482543540268
-0.414829523661913
-0.3998626837819284
-0.39681203400088166
-0.3465613892215896
-0.3465831362667733
-0.33068259368539105
-0.46113311032496235
-0.48091159055733934
-0.4892086020039271
-0.48490860431378563
-0.523984307785668
-0.5238816857064131
-0.5420209163737991
-0.5133246084291797
-0.5389119865105884
-0.5227075856506912
-0.5564212437031626
-0.4829086819017079
-0.5841890059929739
-0.5599767633496034
-0.5148436064447762
-0.5385476627402359
-0.6324790062092508
-0.5999976581938419
-0.6499264401452725
-0.6039662572678804
-0.6821622528904604
-0.5055440874301934
-0.6899965938040679
-0.4804735678859267
-0.6219699846640535
-0.501882959950403
-0.6883157442029177
-0.5272776773667042
-0.41847114103135213
-0.6007797637741317
-0.5761199170513086
-0.587332740141932
-0.5090545722054854
-0.42108928472632634
-0.291477177102708
-0.1070666368257905
-0.2721981308955617
-0.3902697518993474
-0.44279439269108783
-0.47044966388923376
-0.6348343427002112
-0.13870761248359242
-0.1514300318265819
-0.32003633051578545
-0.37509069480668983
-0.3493794548873732
-0.4503478302914931
-0.2252976591808796
-0.36487094544327325
-0.3065714319983686
-0.42121953788268657
-0.38297719228019234
-0.32451403990131306
-0.42558360674309265
-0.5095069663153543
-0.4762054046793422
-0.35225372241455416
-0.43438044425292593
-0.5478306572015681
-0.5512851287952055
-0.48280556018535664
-0.5235411273784071
-0.5231942995833474
-0.5595336940128258
-0.6229683413041913
-0.5518505331485553
-0.6515463697871456
-0.5961445024052225
-0.434321495834416
-0.47297200000000006
-0.5663584829809658
-0.5546843347594289
-0.5611071119791667
-0.5708209183860412
-0.5336894786112832
-0.664783412265066
-0.5773472864161975
-0.5102780080595163
-0.5483103001219524
-0.54325344
-0.6669943058842964
-0.5725671585337403
-0.44311686298822034
-0.5972776303651485
-0.6384170316181029
-0.5973433675263439
-0.5431108424414591
-0.47925482693425775
-0.36925626231315073
-0.6762663424189636
-0.5568812283816774
-0.47055045726907346
-0.43860217432399634
-0.3729919098619508
-0.16508506385616864
-0.006264319412385934
-0.17576692644744252
-0.3577797317091243
-0.3877877242928001
-0.39754986092994415
-0.5700295240204692
-0.18841286627918882
-0.04605849803908834
-0.2899192875416538
-0.3788453905227555
-0.35634579273954686
-0.40023787036435604
-0.2697612783357047
-0.442454
-0.20481150851912966
-0.4569979215697089
-0.43402678845491427
-0.4004060461175114
-0.4999865700849429
-0.5682468795536267
-0.42379187118730505
-0.4093016354888556
-0.5219016738793477
-0.5588067877271196
-0.5807505573183692
-0.5525602486758457
-0.662395421875
-0.5717872365835596
-0.6245948785835741
-0.7687269442033476
-0.5881927718796025
-0.73045296
-0.5874214507129573
-0.37773804972409947
-0.4235899999999998
-0.538454022568045
-0.48085036459125424
-0.49639012042499836
-0.5824950000000001
-0.5226325485306512
-0.5751058648481094
-0.5758032010337578
-0.5796114156983191
-0.5209500458772476
-0.5988350831893734
-0.5880829363325826
-0.5090618409101287
-0.6118704000000005
-0.5789654883915104
-0.6903094379003929
-0.5489272402301039
-0.549809571097013
-0.5309808796039205
-0.4603988888888884
-0.6831696537710892
-0.5777834752577196
-0.4679954254745036
-0.4608748547037523
-0.4779765465930927
-0.3584486274023568
-0.6425763051342094
-0.4370817275016474
-0.3940905346086961
-0.3960055179398149
-0.35945583669677356
-0.14015060977614355
-0.13674497049343964
-0.1387097078307944
-0.36548089935183786
-0.3433920641317077
-0.37837186812151274
-0.46646544263243334
-0.38481041837683666
-0.16462581035126253
-0.24225520116597968
-0.4250695157944459
-0.3731136888888889
-0.44109228525668526
-0.4672396909030105
-0.48569
-0.2797438457516553
-0.4391403448772657
-0.5114436249803677
-0.47634909623200355
-0.5567976142437449
-0.6103181183367803
-0.45956598628412176
-0.611899586306002
-0.5435002198937732
-0.6066754670907368
-0.6126265496832519
-0.7129838353334484
-0.6652849869791665
-0.6101583923823107
-0.6929679152813771
-0.756310117792932
-0.5825200937997174
-0.7183016000000001
-0.5907772390989876
-0.3912343700442961
-0.4065164372804298
-0.5399780559515818
-0.4420448585535954
-0.46757679789212653
-0.6010693473477957
-0.5123215824678333
-0.5573664713783844
-0.6372229579309107
-0.5484988908030255
-0.5650717788113696
-0.5433521936363527
-0.4932719446690384
-0.53831
-0.44523339450678906
-0.47871119949573204
-0.4308376635668522
-0.5098362351122673
-0.6375054945091313
-0.5364527196656075
-0.5095793600950417
-0.561930884498326
-0.6665758058920676
-0.5698540638047903
-0.7026616817524277
-0.5208976269290423
-0.5504045214363505
-0.596469842086502
-0.5353040000000001
-0.5565679159370238
-0.5063793296490485
-0.49792030650178215
-0.6165106907530261
-0.7513947600818258
-0.6859150244592983
-0.5457100028104986
-0.425470750720819
-0.458808989828043
-0.5372759770599541
-0.45899933333333315
-0.6359696333886681
-0.4258354266518028
-0.38000214052505066
-0.42205184461805545
-0.47919130638394586
-0.36369998550452126
-0.4973706396206445
-0.3855017688271924
-0.34779820252118215
-0.4084522526041667
-0.35926425802479667
-0.2363897100197332
-0.40345062078941923
-0.22924233992542128
-0.38538181034455127
-0.38301479272576994
-0.3778533599999998
-0.4541208195525836
-0.5164179586803624
-0.42876880913508475
-0.3061308462359882
-0.4865729229924902
-0.44475418666666694
-0.4835681830956809
-0.5811502966491419
-0.5084205682992352
-0.5057220076451316
-0.4722551556737766
-0.6011704228668009
-0.5380809687952057
-0.6169686976143869
-0.632917507487559
-0.5974556465246664
-0.6919534192130127
-0.5537172213611089
-0.6339444419322974
-0.6488673661004344
-0.751634158335824
-0.6392661719045986
-0.6169272832495888
-0.7017953097650192
-0.7175203720981119
-0.601663440366637
-0.7176747458565816
-0.6583152843507623
-0.4837903637115106
-0.5484333631178058
-0.711226079054137
-0.5362513185026966
-0.6019779548368721
-0.6968646765874168
-0.5423494081219352
-0.6050894615118493
-0.5233094602726646
-0.48383405609147273
-0.4868156457027813
-0.3572621093750001
-0.42137953304172276
-0.3743891821578879
-0.40184222773300315
-0.5160676695598265
-0.5429610555203576
-0.6317669316708051
-0.7553066324710224
-0.6124937973212762
-0.5136415119322949
-0.557395184759589
-0.6609659428555656
-0.7953606121512707
-0.6834644796650088
-0.8299385702247202
-0.5537322491576363
-0.4663002385944602
-0.5417324622194091
-0.6095396786526148
-0.46244599999999997
-0.5670161503069177
-0.4405162209111175
-0.3983970959341511
-0.5759119236068065
-0.7063542726134678
-0.6124958631740353
-0.4060192831246124
-0.3586744707592462
-0.4439403555054346
-0.516349056482113
-0.4279851150375422
-0.4861492813720203
-0.37377736604318934
-0.3751710048503966
-0.4388436062499999
-0.4837650999316261
-0.37341261253230246
-0.45387860041397526
-0.4033539995453606
-0.38526043050216985
-0.49123330569108264
-0.3845978483190358
-0.4243323818970861
-0.5986397385823521
-0.4149846721630628
-0.45580412173326984
-0.5278284752665724
-0.41366329599999996
-0.4786274618632342
-0.5375434724035796
-0.6173925642977101
-0.4759520690701529
-0.5715024134711139
-0.5793269212509476
-0.4880141961562306
-0.6149310933731851
-0.5969971078735276
-0.6573224539521562
-0.5806265835942775
-0.6471009145294437
-0.5923521667262205
-0.6098019032838878
-0.6522920799256048
-0.6791306067506381
-0.713848541150723
-0.6364016230244861
-0.628352991776749
-0.654565077536681
-0.7720345746473797
-0.7047602475249924
-0.6169252643688453
-0.743530287747443
-0.7702107677949118
-0.6778860725290041
-0.7614713375077496
-0.7036048884528181
-0.5685527567679277
-0.5728282294172439
-0.6838127662566506
-0.7352474722345957
-0.5914063631039753
-0.5418368359763602
-0.6514009184073255
-0.5524989283739522
-0.5631110125024551
-0.4537155797952808
-0.492248168857198
-0.3616405982641041
-0.4669743476531408
-0.34187917821076597
-0.3700167983867914
-0.3872201776832714
-0.33228120691122415
-0.3520350650960942
-0.6264793093614391
-0.551252337461755
-0.6060466226096325
-0.708758939227637
-0.7829581165943374
-0.6901905028587169
-0.5423627245684789
-0.5059021136776066
-0.6269598002896489
-0.721783537071124
-0.8207526746065207
-0.7400107343150842
-0.6274978943772918
-0.4730277226142423
-0.4406546216730815
-0.6022216728416511
-0.5054640070262455
-0.36871423434593886
-0.5485145289876333
-0.48399880817936475
-0.37312349356585256
-0.47044937487084165
-0.6087727229394576
-0.4911750545020202
-0.39230682587311466
-0.4291223218977796
-0.4812417395206376
-0.5135783330306362
-0.3926629234690367
-0.4626248478772205
-0.4610924347316931
-0.428901338222315
-0.5455761233556462
-0.4785462229126198
-0.4331654858441825
-0.5215189924257083
-0.4253701445587936
-0.5378714784173776
-0.58021043833442
-0.4312455284245456
-0.5968426637735076
-0.6294578818114819
-0.5772699305743401
-0.526896589550183
-0.6640181756782053
-0.5144737491547846
-0.4552659248699636
-0.5407947015255861
-0.6859374744539596
-0.6092174958104083
-0.6350937030955991
-0.6538207545773921
-0.48788677414251597
-0.6260269386535741
-0.6683332413721847
-0.7318836016897383
-0.6602930762460723
-0.6435231297044841
-0.5603468357537602
-0.5558692088070333
-0.6559793794172353
-0.7333790335013667
-0.7419009550024106
-0.6674278244856694
-0.6061152261634293
-0.6749188744579725
-0.8218425779885395
-0.6903486618907461
-0.6227379281555636
-0.7964224690669183
-0.7310864924525066
-0.7163286767002138
-0.7083188697251493
-0.6505478434467725
-0.6479431253013715
-0.5612198790838915
-0.5789265388247847
-0.6648246426271863
-0.6245845223772618
-0.6407368869509771
-0.5001313724904749
-0.483021909840277
-0.5094613921232339
-0.47064799999999984
-0.6282292748145594
-0.3841240614894617
-0.37493569069444477
-0.35644788363544094
-0.5692071404579817
-0.2888145138460463
-0.39893465251138727
-0.3888782604373828
-0.4534885370430724
-0.43248625955776054
-0.7520079999999999
-0.5632860835039731
-0.5452405862091302
-0.6151659473535535
-0.6777676840622374
-0.691229989752512
-0.6328196561272982
-0.6432499875999743
-0.47179044426003475
-0.5636934497483755
-0.6225682191703542
-0.7034519158959086
-0.610399309251962
-0.5629050360910335
-0.44100731455448655
-0.5254954739583328
-0.6294520760832739
-0.3757419725713542
-0.32830174953502794
-0.5356164620857465
-0.5612070244691565
-0.48143224550526925
-0.45830190799752074
-0.5378876473022657
-0.48247622264099754
-0.5243805866666661
-0.524064642004087
-0.5545532128022822
-0.5091067881103933
-0.4132493333333335
-0.5823222413721838
-0.5320686887456082
-0.5036049788447521
-0.6242898614926683
-0.4526160343067353
-0.518969218846869
-0.5577287872243837
-0.43708797495249496
-0.6510217442985268
-0.5794425217013885
-0.47495680197231677
-0.672220483513973
-0.5662054747993892
-0.6872352422719832
-0.5344267163480029
-0.6798769293242407
-0.566055127985121
-0.4052869514913405
-0.5658085445181111
-0.6480276095521891
-0.6996824747897995
-0.6237767725647001
-0.6248491200000003
-0.43988246919320445
-0.5846626562582772
-0.6562500899224809
-0.7189662021561355
-0.6962792187982321
-0.6097233342426113
-0.47739929985534246
-0.5109497472202771
-0.6288501603325538
-0.7416183768254797
-0.6600113911363595
-0.5994575140842979
-0.5508630882316624
-0.688693520611849
-0.7312130683812637
-0.5474281415226642
-0.6244342435692117
-0.7123614626075248
-0.5657798765466638
-0.6559830371640318
-0.6038792438656336
-0.6437650489821876
-0.7615599999999995
-0.561960459814845
-0.5025666080591088
-0.5324819416148147
-0.544806528894529
-0.6099390328580284
-0.733695479782324
-0.5479784491306846
-0.3971338014287096
-0.43439124099788873
-0.41576747735548797
-0.7288382248398425
-0.5014828679992257
-0.3457069690244101
-0.41374705050903143
-0.7151669931804082
-0.44582656404803706
-0.473088693888523
-0.5167055079153562
-0.6461521147286816
-0.5825699999999994
-0.7396155999999999
-0.6450383740123032
-0.49858427271278655
-0.5579031376162256
-0.5607007957972693
-0.5927506688421484
-0.48919636129217275
-0.702576484394569
-0.5255455830439809
-0.508714378204946
-0.5794429533050779
-0.5751251591013344
-0.5658703926125843
-0.5257976155213876
-0.4905984487152993
-0.6179085411458335
-0.5929604672590076
-0.32563732447658195
-0.36952119999999994
-0.5210696532824759
-0.5738250693111536
-0.5790549564786113
-0.5298367111111107
-0.5214316457641354
-0.5692541489288415
-0.6199643039999999
-0.5178814454927109
-0.5796103580293138
-0.471383397929196
-0.45944444444444493
-0.6754188491010539
-0.4906092860383016
-0.5271438577430848
-0.5841926291666669
-0.4068713971383496
-0.5876027625417757
-0.5052144476416469
-0.42255210885469724
-0.6295311935523867
-0.4720708463541663
-0.5557406665759216
-0.6496988501611788
-0.5172694738036352
-0.696112079654371
-0.5628462291007571
-0.5594268981194458
-0.5341943839999997
-0.34619219100004356
-0.5909801777690192
-0.5346736003684766
-0.6943304994758995
-0.5910085815895658
-0.5219828
-0.38567670874147547
-0.5208014337572244
-0.57471
-0.5766404226465532
-0.662687664358531
-0.5513036907306438
-0.39937395536267845
-0.4592407870952479
-0.5854981354437693
-0.6107913232091317
-0.507632037812675
-0.47154496496993
-0.5126280040951909
-0.5953084259890867
-0.5500205275996506
-0.3698142317708334
-0.5775665390783205
-0.5988854609477753
-0.3740527216367018
-0.6654042465473972
-0.4939855999999999
-0.6539977185368877
-0.7565
-0.6240782798179842
-0.49655112941431573
-0.4773251617473057
-0.47951158157939194
-0.5208805362238124
-0.7259498983261006
-0.6372897485475358
-0.46959462338320607
-0.44357974481882684
-0.4368447130398838
-0.749898795412275
-0.6574992801251102
-0.48460798870456817
-0.5298582864370357
-0.8053438995660259
-0.6523945872753631
-0.6112635663360205
-0.6757943561287117
-0.7785355092506464
-0.642522
-0.5748867303161801
-0.6862133530493728
-0.5102433005458041
-0.5191321008305946
-0.5302260110391425
-0.5186209132805754
-0.3999502867019408
-0.6326122427173906
-0.5803120503472221
-0.47788420327648024
-0.5423531432128675
-0.5468180797653767
-0.5477185947949303
-0.49410429813322326
-0.5328205036164492
-0.5905931852868079
-0.5293664506072809
-0.3755590328580287
-0.45512000000000025
-0.5007983392954416
-0.530657935814153
-0.5456685505601507
-0.5846966133333332
-0.5099531213416721
-0.6513044773713573
-0.5826624827691664
-0.4700522516991353
-0.5563637547156458
-0.41710952173104343
-0.4816810229386237
-0.6503134757501526
-0.43169136735798647
-0.5290604404434697
-0.4538788880208328
-0.4224158147039871
-0.6106542660749916
-0.4387351886481659
-0.4359913006984914
-0.49760167183302256
-0.4281614236622369
-0.630528081671626
-0.5769101258877448
-0.535831971133656
-0.5845849921534593
-0.6150399489351078
-0.4665152424015275
-0.4464527999999995
-0.352643027580722
-0.5741086814640298
-0.4592816948664909
-0.563892446534816
-0.5927005180844523
-0.44979911303988446
-0.3467652725769787
-0.4569252623986078
-0.44506131932526033
-0.5435463257762899
-0.535546499897339
-0.3679368517373289
-0.4498672535175388
-0.509683612300707
-0.4767171990409162
-0.37154129983448353
-0.47940630261335104
-0.5135807042283992
-0.37745714603967156
-0.5782484219603433
-0.503476233046066
-0.6980145725382293
-0.5811323190053032
-0.6326375272469918
-0.5202504767201818
-0.4984318399801091
-0.5002361509441986
-0.4880640671026776
-0.5737448355610262
-0.6556716386543218
-0.559748031937861
-0.5338578635853252
-0.5287121451952883
-0.6446111264931663
-0.7352505697880075
-0.6192555165563083
-0.6373097475102519
-0.7540252705267284
-0.7624553942107907
-0.7076962065972218
-0.7103024278008555
-0.7402065931998462
-0.5484267503616443
-0.43630228869601195
-0.5963907854058205
-0.515749452350585
-0.47377730678882973
-0.5245007065525713
-0.5242441277217164
-0.43000556457945827
-0.514741729152196
-0.5437961937723691
-0.4641021080578897
-0.47231824120686144
-0.5318026735081147
-0.4797268748064622
-0.4910668609878079
-0.5137963085099231
-0.5098573760983894
-0.5204828823403956
-0.4987391113866509
-0.49706588055383344
-0.49323749816900664
-0.5476103866487888
-0.49062462721222905
-0.5843522654680716
-0.5295815262502817
-0.6675156519156343
-0.5300059510229383
-0.526200365137271
-0.5032803587460678
-0.42286359321476447
-0.48927528621616084
-0.5881457905709538
-0.4902823134283936
-0.5040835582105655
-0.41165283169409134
-0.5138098652809315
-0.560561953822785
-0.4724926197499976
-0.4590667095543159
-0.4348968759865563
-0.5293998853916423
-0.5934760765396425
-0.5480084618857443
-0.584638366398016
-0.4940538787410828
-0.5968750304592106
-0.538893448626044
-0.4246833446083898
-0.4064716041739302
-0.469882362085311
-0.4713028730056584
-0.5888022174422681
-0.5257206243438725
-0.365044120136978
-0.41230566339921465
-0.47715448717990533
-0.5468909255803868
-0.4503407656566231
-0.4609610501430214
-0.4739015323176707
-0.4200135904856142
-0.4682069015048143
-0.49419255255218003
-0.6244132025537246
-0.4404717637941727
-0.5451136474836086
-0.5183899016971482
-0.5131895526866104
-0.531875337070428
-0.5210000363867815
-0.47349970421257387
-0.5883420794608244
-0.5928522021552319
-0.5907180327685314
-0.5702572894399669
-0.547268661749628
-0.6949938504294502
-0.6576263435831179
-0.6659889946269891
-0.6376407861231475
-0.7111610986044513
-0.6817791302083335
-0.5859695145344798
-0.6305829737151799
-0.470067663773507
-0.44682079999999996
-0.4852100031354761
-0.4822983624101566
-0.4500752791535299
-0.496967154660054
-0.5005889458835683
-0.5450814462354484
-0.4984080693161383
-0.4768332517806891
-0.46973626643119687
-0.44300468577805324
-0.4748048270223925
-0.4388005162126231
-0.5318176701798069
-0.48887120489879504
-0.5213012895833332
-0.5539566195378386
-0.5827868995612002
-0.5040924810911346
-0.5142308544671442
-0.5647959946308455
-0.5395718394296339
-0.5744735969966244
-0.5793974358924148
-0.6500688277281516
-0.5721928799999998
-0.573847596225555
-0.4900676907924388
-0.5163057074475143
-0.4588912833230007
-0.5990556686918785
-0.5645848851002272
-0.5003852591616861
-0.5324219794007674
-0.5368669529824875
-0.5110703530801894
-0.5510606054284599
-0.4985359626076294
-0.5447336866956677
-0.5995465542903365
-0.5320795925238143
-0.5825012833230007
-0.51528599138525
-0.5718319699135411
-0.6283497111161034
-0.5552664188220712
-0.4710446117209835
-0.49748052794918246
-0.5974092784345258
-0.6173374884893579
-0.5049130284906155
-0.5060780146988453
-0.568201380786075
-0.524928546127654
-0.4754419565909807
-0.5077363914445134
-0.5046902514212445
-0.4694226666666668
-0.48571464745654386
-0.49512833092060565
-0.519780284499508
-0.5358386236279068
-0.49193517187216296
-0.5306363397396153
-0.5401718883505086
-0.5756233455251233
-0.6011251659252425
-0.5521156000000002
-0.5813582473651582
-0.6201733767692059
-0.6111243089028275
-0.6347097383756974
-0.6263328450092996
-0.6235335745778198
-0.5631912629804707
-0.511742127190429
-0.6122413124547804
-0.503154
-0.5527053333333338
-0.49092520457974237
-0.453870434089424
-0.4736945255172747
-0.49283283851208987
-0.4509350078269104
-0.629813293728442
-0.5509790733048133
-0.4742972795138887
-0.47951195108341693
-0.4952956743751659
-0.43974078684707746
-0.47778509195395436
-0.5785728079572011
-0.49296111923951197
-0.5338734140624998
-0.5675746936604255
-0.5969308819896516
-0.5042701343252737
-0.5726192396405524
-0.532255448081811
-0.5447896021905353
-0.5805033066666668
-0.6438823473125492
-0.6582866893986363
-0.59093848
-0.5475184802525099
-0.5615752109842534
-0.5791827624257112
-0.43116086063738174
-0.6313229931804092
-0.5813353290168854
-0.5650544501496922
-0.6194373242932855
-0.5274198908077739
-0.517024848109113
-0.5996075462948786
-0.5871176698868602
-0.6156225495820989
-0.6210289534435115
-0.553357409589719
-0.6121360538506585
-0.6639688426319741
-0.6215495879975204
-0.5770429289031502
-0.6348350447842738
-0.6533722796210166
-0.5746186628892369
-0.5960489446579879
-0.5585102615495436
-0.49463668254816917
-0.5753088888888894
-0.534538791067026
-0.4854619529236002
-0.5382448206672357
-0.5607023032144697
-0.4318653998760076
-0.6301518640214921
-0.5878073297901524
-0.5576755386624405
-0.5892523420987671
-0.5686958400000001
-0.6838201870221123
-0.6334350630006079
-0.5883203113538795
-0.5807770937517256
-0.7029250430529724
-0.6257118045398768
-0.5557106255058721
-0.5585451648583298
-0.6287546825150737
-0.5159499999999999
-0.6412040487704066
-0.5642174880994214
-0.4685390672029987
-0.5048134167407105
-0.5217485810237489
-0.4674881437824138
-0.6401830109866272
-0.5744209169468045
-0.4857819314236112
-0.4720888026246756
-0.5676538381154383
-0.446369001335064
-0.5792493334384353
-0.5923655847902457
-0.45465963801060755
-0.48716235549108394
-0.5757890687799102
-0.6258564776996177
-0.5130413136950905
-0.6460620124184184
-0.5300748861278136
-0.4858991828561005
-0.5410192888888884
-0.7144029151401731
-0.6515521994902528
-0.578963029237446
-0.5379280993138971
-0.6231829161495225
-0.6146963274615977
-0.46291999999999994
-0.6655266360054765
-0.5917678459793065
-0.5713155694010598
-0.6462946571705429
-0.5952224893049782
-0.6332002224315044
-0.5752485825847417
-0.6065340720703712
-0.697686953125
-0.7078063494523663
-0.5918972189105941
-0.5847999822596532
-0.6673980000000003
-0.557686845925691
-0.5740486588138043
-0.6388522945512155
-0.6115917639720325
-0.5175011409713073
-0.5628924875793597
-0.577578976622457
-0.4726163236205828
-0.6394016760728737
-0.6542405972424281
-0.5880011082984069
-0.6085324068809238
-0.5967863599504032
-0.6964478280668526
-0.6695712976155087
-0.6274508507485467
-0.6291403673282802
-0.7275821512640909
-0.6101867668414157
-0.6559435520833333
-0.5474528168723002
-0.6349299723380185
-0.5291106054970032
-0.6664479770613764
-0.5962441039284201
-0.49759344173085124
-0.5180499452334163
-0.561483460453129
-0.4953316999155882
-0.6747640589281118
-0.5777545478562355
-0.473298233342805
-0.4456276202684913
-0.6094190274271546
-0.496934975019917
-0.6973771427094411
-0.5590513837845279
-0.43228618816039704
-0.482707461737478
-0.6299962730359995
-0.6758635437266015
-0.5233800000000001
-0.7268466920228449
-0.5704962836071261
-0.4957609495351049
-0.5523936751394912
-0.7260266115618509
-0.6956391387616138
-0.6093487495598264
-0.5306600351571019
-0.667695559637481
-0.6718236500712998
-0.7024022138122178
-0.5541660726272047
-0.5341996793515764
-0.7159646953124997
-0.6000103858505533
-0.48710245848860884
-0.6479369386236825
-0.6051207200000002
-0.5068921139269796
-0.5786614271543707
-0.6384456912585241
-0.6054997991706172
-0.5498629353045673
-0.5895833583912844
-0.5903813614903543
-0.5533519376803503
-0.5765031775245999
-0.6239205957246253
-0.5935401898627113
-0.6519371789943146
-0.6435301338293032
-0.6207684890309245
-0.6337711850565438
-0.5867963503400445
-0.740934674519529
-0.6887942743068916
-0.568124575494321
-0.627838294270833
-0.5366418005593231
-0.6676849858680524
-0.6229292901425915
-0.6917883798305438
-0.5834622883903667
-0.49072683356656205
-0.5126514520745308
-0.6026414224509193
-0.501940740884759
-0.7259556890444935
-0.6079033105852075
-0.4914736150087506
-0.44604780276380235
-0.610761941020872
-0.5825193758312127
-0.7507887584274391
-0.5739494621240643
-0.5107244212748457
-0.5327615060042755
-0.7162482946876666
-0.6215473134945241
-0.7292095776926065
-0.6360462535303083
-0.5421984499322706
-0.6687483918164912
-0.7438731963512363
-0.8021445778429986
-0.6175160103327131
-0.5224453331464166
-0.6919783998932284
-0.6755609120782821
-0.4873942021905564
-0.5489000973683672
-0.5330398724592643
-0.4920493677619338
-0.519934723850708
-0.637130426052214
-0.5516101324471071
-0.5149313519388615
-0.5663261175684694
-0.6197826161612401
-0.5787886055045625
-0.5383052274969244
-0.5638559171215628
-0.5297832279882703
-0.5920250288584404
-0.7047816800000001
-0.5679336354659077
-0.6013664218255759
-0.5075588035164641
-0.7008642694771643
-0.6554140212065543
-0.6001048395299654
-0.5779577558207619
-0.6247506644602874
-0.6899310789575227
-0.6929500785286218
-0.6861607218604654
-0.5823654307390386
-0.4912609429497407
-0.48445531041391016
-0.5974210463318864
-0.5241253242238851
-0.6296627443686714
-0.6465163213564667
-0.5419781958042015
-0.5160607668096712
-0.5933493305836142
-0.6314211722229495
-0.7295849737759498
-0.6804310737827479
-0.595995537331737
-0.5932633859614552
-0.6920893416401075
-0.6346183435732141
-0.5657230108341302
-0.725228032678928
-0.8301643790024121
-0.8086652185100901
-0.5851595859183462
-0.5065716213234791
-0.63263986235839
-0.47280857280429817
-0.5358716488121475
-0.5974232458225667
-0.5395162442922347
-0.4884327505341955
-0.4913474956422596
-0.5828405690404818
-0.5723441525108495
-0.49786897462232277
-0.5682085384204373
-0.505809202296612
-0.49543181159983446
-0.6752282666666664
-0.5233946069342924
-0.6256735854765233
-0.5323120594878344
-0.6347969734150113
-0.6158246889640754
-0.6551000491182766
-0.6451785638295295
-0.6784532139774572
-0.6613492599419107
-0.6694287886304913
-0.55911
-0.5881352856620624
-0.537948119214723
-0.4928019468846432
-0.5384090647785752
-0.5373700889147343
-0.6132992878665756
-0.5874379987932454
-0.5952689609263065
-0.611941009022054
-0.598501617894193
-0.718776340606876
-0.740195544638471
-0.6158388340940029
-0.5897421666666666
-0.5327932238065716
-0.675248802535746
-0.8538377234742497
-0.7295014391969222
-0.5468807199999999
-0.6264323546187227
-0.48221333333333305
-0.5499920198711356
-0.5414705042765123
-0.47430837426079714
-0.5166258966284131
-0.5689744719983469
-0.4268112068609219
-0.5861839234341559
-0.5685270013601696
-0.5082966343819445
-0.647314589791279
-0.4688985182889027
-0.6375906080893582
-0.5975662983402189
-0.6812894409534437
-0.564186752428188
-0.6386389298177731
-0.664941116414699
-0.6197597944294415
-0.594293669250646
-0.57996
-0.5639599603199204
-0.593157290558846
-0.56384618348148
-0.5172339181656654
-0.5352386227524938
-0.5952657291666669
-0.6312335185706388
-0.6644423946642845
-0.5612093624218403
-0.7429038216061824
-0.7077751754096417
-0.5903724457532551
-0.6223198666666668
-0.7798192067444215
-0.6920731432114076
-0.5447223640786937
-0.6184344478191978
-0.5580338777822119
-0.5190976925944911
-0.6152931434407379
-0.5913924510084668
-0.6325108921310961
-0.576867211383472
-0.6814835806571605
-0.6297514016791103
-0.5867078638210134
-0.678563701980268